 vasp.5.4.4.18Apr17-6-g9f103f2a35 (build Jul 27 2025 00:00:01) complex          
  
 executed on             LinuxIFC date 2026.04.10  15:53:48
 running on  896 total cores
 distrk:  each k-point on  896 cores,    1 groups
 distr:  one band on NCORES_PER_BAND=  32 cores,   28 groups


--------------------------------------------------------------------------------------------------------


 INCAR:
 POTCAR:    PAW_PBE Ge_d 03Jul2007                
 POTCAR:    PAW_PBE Sn_d 06Sep2000                
 POTCAR:    PAW_PBE Ge_d 03Jul2007                
   VRHFIN =Ge: 3d4s4p                                                           
   LEXCH  = PE                                                                  
   EATOM  =  2596.2402 eV,  190.8183 Ry                                         
                                                                                
   TITEL  = PAW_PBE Ge_d 03Jul2007                                              
   LULTRA =        F    use ultrasoft PP ?                                      
   IUNSCR =        1    unscreen: 0-lin 1-nonlin 2-no                           
   RPACOR =    2.000    partial core radius                                     
   POMASS =   72.610; ZVAL   =   14.000    mass and valenz                      
   RCORE  =    2.300    outmost cutoff radius                                   
   RWIGS  =    2.300; RWIGS  =    1.217    wigner-seitz radius (au A)           
   ENMAX  =  310.294; ENMIN  =  232.720 eV                                      
   ICORE  =        3    local potential                                         
   LCOR   =        T    correct aug charges                                     
   LPAW   =        T    paw PP                                                  
   EAUG   =  531.356                                                            
   DEXC   =    0.000                                                            
   RMAX   =    2.342    core radius for proj-oper                               
   RAUG   =    1.300    factor for augmentation sphere                          
   RDEP   =    2.318    radius for radial grids                                 
   RDEPT  =    1.783    core radius for aug-charge                              
                                                                                
   Atomic configuration                                                         
    9 entries                                                                   
     n  l   j            E        occ.                                          
     1  0  0.50    -10959.8463   2.0000                                         
     2  0  0.50     -1371.6056   2.0000                                         
     2  1  1.50     -1198.4791   6.0000                                         
     3  0  0.50      -168.4733   2.0000                                         
     3  1  1.50      -115.6019   6.0000                                         
     3  2  2.50       -29.3106  10.0000                                         
     4  0  0.50       -11.7309   2.0000                                         
     4  1  0.50        -3.8952   2.0000                                         
     4  3  2.50        -4.0817   0.0000                                         
   Description                                                                  
     l       E           TYP  RCUT    TYP  RCUT                                 
     2    -29.3105938     23  2.200                                             
     2    -13.6058260     23  2.200                                             
     0    -11.7309493     23  2.300                                             
     0     -7.4578696     23  2.300                                             
     1     -3.8952261     23  2.300                                             
     1      6.1178114     23  2.300                                             
     3     -1.3605826     23  2.300                                             
  local pseudopotential read in
  partial core-charges read in
  partial kinetic energy density read in
  atomic valenz-charges read in
  non local Contribution for L=           2  read in
    real space projection operators read in
  non local Contribution for L=           2  read in
    real space projection operators read in
  non local Contribution for L=           0  read in
    real space projection operators read in
  non local Contribution for L=           0  read in
    real space projection operators read in
  non local Contribution for L=           1  read in
    real space projection operators read in
  non local Contribution for L=           1  read in
    real space projection operators read in
    PAW grid and wavefunctions read in
 
   number of l-projection  operators is LMAX  =           6
   number of lm-projection operators is LMMAX =          18
 
 POTCAR:    PAW_PBE Sn_d 06Sep2000                
   VRHFIN =Sn: s2p2                                                             
   LEXCH  = PE                                                                  
   EATOM  =  1893.1092 eV,  139.1396 Ry                                         
                                                                                
   TITEL  = PAW_PBE Sn_d 06Sep2000                                              
   LULTRA =        F    use ultrasoft PP ?                                      
   IUNSCR =        1    unscreen: 0-lin 1-nonlin 2-no                           
   RPACOR =    2.300    partial core radius                                     
   POMASS =  118.710; ZVAL   =   14.000    mass and valenz                      
   RCORE  =    2.500    outmost cutoff radius                                   
   RWIGS  =    2.960; RWIGS  =    1.566    wigner-seitz radius (au A)           
   ENMAX  =  241.083; ENMIN  =  180.812 eV                                      
   ICORE  =        3    local potential                                         
   LCOR   =        T    correct aug charges                                     
   LPAW   =        T    paw PP                                                  
   EAUG   =  439.825                                                            
   DEXC   =    0.000                                                            
   RMAX   =    2.560    core radius for proj-oper                               
   RAUG   =    1.300    factor for augmentation sphere                          
   RDEP   =    2.659    radius for radial grids                                 
   RDEPT  =    2.046    core radius for aug-charge                              
                                                                                
   Atomic configuration                                                         
   12 entries                                                                   
     n  l   j            E        occ.                                          
     1  0  0.50    -29007.2859   2.0000                                         
     2  0  0.50     -4378.8056   2.0000                                         
     2  1  1.50     -3930.4293   6.0000                                         
     3  0  0.50      -845.0264   2.0000                                         
     3  1  1.50      -698.5725   6.0000                                         
     3  2  2.50      -473.2839  10.0000                                         
     4  0  0.50      -133.9036   2.0000                                         
     4  1  1.50       -89.6752   6.0000                                         
     4  2  2.50       -25.8375  10.0000                                         
     5  0  0.50       -10.5484   2.0000                                         
     5  1  0.50        -3.6940   2.0000                                         
     4  3  2.50        -2.7416   0.0000                                         
   Description                                                                  
     l       E           TYP  RCUT    TYP  RCUT                                 
     2    -25.8374624     23  2.500                                             
     2     -5.4423304     23  2.500                                             
     0    -10.5483727     23  2.500                                             
     0     13.6058260     23  2.500                                             
     1     -3.6939829     23  2.500                                             
     1      1.9821976     23  2.500                                             
     3     -1.3605826      7  2.500                                             
  local pseudopotential read in
  partial core-charges read in
  partial kinetic energy density read in
  atomic valenz-charges read in
  non local Contribution for L=           2  read in
    real space projection operators read in
  non local Contribution for L=           2  read in
    real space projection operators read in
  non local Contribution for L=           0  read in
    real space projection operators read in
  non local Contribution for L=           0  read in
    real space projection operators read in
  non local Contribution for L=           1  read in
    real space projection operators read in
  non local Contribution for L=           1  read in
    real space projection operators read in
    PAW grid and wavefunctions read in
 
   number of l-projection  operators is LMAX  =           6
   number of lm-projection operators is LMMAX =          18
 

 ----------------------------------------------------------------------------- 
|                                                                             |
|  ADVICE TO THIS USER RUNNING 'VASP/VAMP'   (HEAR YOUR MASTER'S VOICE ...):  |
|                                                                             |
|      You have a (more or less) 'large supercell' and for larger cells       |
|      it might be more efficient to use real space projection opertators     |
|      So try LREAL= Auto  in the INCAR   file.                               |
|      Mind:          For very  accurate calculation you might also keep the  |
|      reciprocal projection scheme          (i.e. LREAL=.FALSE.)             |
|                                                                             |
 ----------------------------------------------------------------------------- 

  PAW_PBE Ge_d 03Jul2007                :
 energy of atom  1       EATOM=-2596.2402
 kinetic energy error for atom=    0.0173 (will be added to EATOM!!)
  PAW_PBE Sn_d 06Sep2000                :
 energy of atom  2       EATOM=-1893.1092
 kinetic energy error for atom=    0.0047 (will be added to EATOM!!)
 
 
 POSCAR: Ge0.34Sn0.66 (216-atom Ge73Sn143 superce
  positions in direct lattice
  velocities in cartesian coordinates
 exchange correlation table for  LEXCH =        8
   RHO(1)=    0.500       N(1)  =     2000
   RHO(2)=  100.500       N(2)  =     4000
 


--------------------------------------------------------------------------------------------------------


 ion  position               nearest neighbor table
   1  0.853  0.373  0.796-  40 2.61 108 2.86 136 2.90  79 3.03 146 3.24  78 3.33
   2  0.684  0.677  0.815-  54 2.55 188 2.81 106 2.89 151 2.91 149 3.13
   3  0.937  0.041  0.228-  25 2.54 196 2.74 168 2.78 172 2.84 200 3.30
   4  0.698  0.763  0.578-  54 2.57  39 2.61 207 2.88 176 2.88 116 3.05 198 3.17
   5  0.094  0.180  0.504-  32 2.60  63 2.63  80 2.84 103 2.85  74 3.06
   6  0.408  0.479  0.616-  30 2.61  68 2.61  44 2.72  72 2.72 152 2.84
   7  0.955  0.193  0.054- 168 2.85 138 2.97 104 3.01 156 3.03 197 3.05 200 3.14 101 3.16
   8  0.952  0.910  0.426-  25 2.55  17 2.64 178 2.90 185 2.95 154 3.02 198 3.13
   9  0.850  0.628  0.682-  13 2.55  54 2.57  15 2.57 181 2.95  78 3.20
  10  0.118  0.592  0.143-  31 2.55  37 2.56  38 2.61  83 2.75
  11  0.413  0.112  0.875-  41 2.64 174 2.82 213 2.82 157 2.90 140 2.94 125 3.17
  12  0.904  0.601  0.045-  26 2.56  83 2.78 102 2.87  89 2.92 133 3.08
  13  0.893  0.761  0.662-   9 2.55  49 2.63 127 2.79 207 2.93 198 3.04
  14  0.291  0.285  0.582-  32 2.61  30 2.65  87 2.83 132 2.88  82 2.89
  15  0.877  0.617  0.822-   9 2.57  26 2.58 108 2.84 121 2.88 106 2.92
  16  0.747  0.216  0.625- 100 2.75  94 2.77 165 2.77 192 2.81 189 3.16
  17  0.058  0.844  0.506-   8 2.64 191 2.88 127 2.95 212 3.07  74 3.07 129 3.09 131 3.15
  18  0.541  0.541  0.430-  68 2.51  58 2.53  24 2.56  88 2.87 111 3.09
  19  0.514  0.776  0.948-  34 2.60 145 2.84 151 2.87 186 2.88 166 3.07 139 3.15
  20  0.524  0.384  0.245-  33 2.53  52 2.55  50 2.55 111 2.78 187 3.32
  21  0.640  0.548  0.634-  54 2.50  58 2.55  44 2.58  79 2.79
  22  0.495  0.011  0.626-  62 2.72 171 2.90 189 2.92 124 2.94 180 2.98 215 2.99 143 3.24
  23  0.424  0.713  0.124- 144 2.88 163 2.89  84 2.90 139 2.95  90 3.13 186 3.18
  24  0.528  0.632  0.321-  18 2.56  57 2.61  90 2.90  97 2.97 111 3.03
  25  0.985  0.031  0.360-  73 2.50   3 2.54   8 2.55 103 2.79
  26  0.857  0.691  0.944-  12 2.56  15 2.58  64 2.60 193 2.82
  27  0.233  0.431  0.763-  72 2.60 132 2.77 209 2.87  92 2.88  82 3.02
  28  0.597  0.169  0.326-  67 2.54  33 2.58 160 2.83  77 2.86 187 3.17
  29  0.195  0.513  0.585-  30 2.60  72 2.64 177 2.87  82 2.95 113 3.02
  30  0.302  0.424  0.535-  29 2.60   6 2.61  14 2.65 134 2.77 115 3.14
  31  0.073  0.470  0.197-  10 2.55  35 2.60 135 2.84 194 3.13 101 3.24 161 3.24
  32  0.224  0.158  0.566-   5 2.60  14 2.61 179 2.92 180 2.99 211 3.01 105 3.05
  33  0.587  0.311  0.349-  20 2.53  28 2.58  45 2.62  88 2.78
  34  0.397  0.862  0.927-  19 2.60  47 2.65 157 2.93 140 2.93 126 2.94 122 2.94 166 3.33
  35  0.188  0.419  0.271-  31 2.60  51 2.61 155 2.90 147 2.90  96 3.12
  36  0.398  0.404  0.075-  50 2.67 214 2.85 147 2.94 144 2.98  85 3.06  75 3.15
  37  0.104  0.726  0.194-  10 2.56 110 2.85 123 2.90  89 3.02 163 3.03 154 3.07
  38  0.258  0.578  0.103-  10 2.61 214 2.87 163 2.88 155 2.95 144 2.97 190 2.98
  39  0.720  0.670  0.468-  58 2.57   4 2.61  71 2.72  97 2.81 162 3.13 198 3.31
  40  0.955  0.271  0.764-   1 2.61  94 2.77  76 2.84 183 2.94 146 3.04 138 3.06
  41  0.536  0.178  0.832-  46 2.61  11 2.64 206 2.82 117 2.90 125 3.03
  42  0.217  0.958  0.720-  69 2.62 107 2.96 157 3.00 211 3.00 212 3.02  81 3.10 216 3.30
  43  0.129  0.327  0.897-  76 2.82 205 2.89 209 2.93 164 2.97 138 3.00 194 3.03
  44  0.514  0.540  0.702-  21 2.58  53 2.59   6 2.72 149 2.91  93 3.00
  45  0.711  0.383  0.332-  66 2.59  33 2.62  52 2.66 119 2.76 162 3.22 128 3.30
  46  0.628  0.091  0.757-  41 2.61 189 2.90 165 2.91 143 2.93 170 2.99 173 3.05
  47  0.342  0.943  0.039-  34 2.65 118 2.82 213 2.85 182 2.91 122 3.08 166 3.15
  48  0.935  0.947  0.751-  49 2.67 212 2.91 183 2.93 208 2.93 170 3.12 141 3.12 185 3.21
  49  0.899  0.812  0.799-  13 2.63  48 2.67  70 2.72 188 3.05 141 3.11 193 3.11
  50  0.506  0.312  0.124-  20 2.55  36 2.67  61 2.79  99 2.91 187 2.93 125 3.24
  51  0.161  0.320  0.374-  63 2.56  35 2.61  60 2.67 105 2.86
  52  0.642  0.457  0.222-  20 2.55  57 2.60  45 2.66 184 2.82 162 3.33
  53  0.484  0.661  0.629-  68 2.59  44 2.59 176 2.75 159 2.85
  54  0.709  0.660  0.676-  21 2.50   2 2.55   4 2.57   9 2.57
  55  0.926  0.245  0.360-  73 2.52  60 2.55 203 2.68 119 2.70
  56  0.819  0.896  0.231- 172 2.86 158 2.88  65 2.90 196 2.95 178 2.95 169 3.19
  57  0.628  0.601  0.219-  52 2.60  24 2.61 139 3.00 133 3.01 162 3.05  97 3.18
  58  0.666  0.542  0.495-  18 2.53  66 2.53  21 2.55  39 2.57 162 3.21
  59  0.773  0.075  0.418-  73 2.53  67 2.56 192 2.80 178 2.81 160 3.15
  60  0.049  0.267  0.293-  55 2.55  51 2.67 168 2.89 103 2.95 101 3.12 135 3.18  96 3.29
  61  0.593  0.356  0.003-  50 2.79 184 2.88 109 2.95 153 3.05 117 3.05  85 3.09 125 3.13
  62  0.639  0.972  0.595-  22 2.72 116 2.87 192 2.89 143 2.96 189 3.04 207 3.12 160 3.27
  63  0.089  0.326  0.497-  51 2.56   5 2.63 203 2.71  82 2.80 177 2.91
  64  0.729  0.730  0.004-  26 2.60  65 2.62 145 2.81 142 2.98 139 3.09
  65  0.782  0.777  0.130-  64 2.62 204 2.86 133 2.89  56 2.90 169 2.95  89 3.04 158 3.29
  66  0.747  0.429  0.463-  58 2.53  45 2.59 100 2.81  86 2.81 162 3.28
  67  0.736  0.150  0.302-  28 2.54  59 2.56 172 2.74 119 2.76
  68  0.439  0.582  0.519-  18 2.51  53 2.59   6 2.61 115 2.88 210 3.08
  69  0.302  0.918  0.607-  42 2.62 191 2.82 179 2.88 171 2.95 215 3.06 180 3.21
  70  0.047  0.776  0.809-  49 2.72 167 2.88 121 2.91 107 2.94 193 3.15 127 3.23
  71  0.863  0.641  0.423-  39 2.72  86 2.86 158 2.98 198 2.99 129 3.02 202 3.05 162 3.07
  72  0.290  0.542  0.692-  27 2.60  29 2.64   6 2.72 159 2.91  98 2.95  93 3.09
  73  0.903  0.124  0.426-  25 2.50  55 2.52  59 2.53  80 2.77
  74  0.098  0.009  0.512-   5 3.06  17 3.07 212 3.10 179 3.14 131 3.36  80 3.39 103 3.49 211 3.51
                           185 3.65 191 3.75
  75  0.316  0.252  0.068- 213 3.07 205 3.10  36 3.15 125 3.21  95 3.25 164 3.25  96 3.26 214 3.38
                           147 3.49
  76  0.113  0.255  0.758-  43 2.82  40 2.84  82 3.07 211 3.17 174 3.54 146 3.58
  77  0.557  0.075  0.206-  28 2.86  91 3.07 175 3.09 148 3.14  99 3.22 187 3.24 199 3.63
  78  0.869  0.457  0.632-  79 2.96  86 2.99 146 3.05 181 3.14   9 3.20  94 3.28   1 3.33 203 3.73

  79  0.724  0.436  0.706-  21 2.79 100 2.95  78 2.96   1 3.03 109 3.12 106 3.25
  80  0.960  0.130  0.569-  73 2.77   5 2.84  94 3.05 185 3.09 183 3.17  74 3.39 211 3.64 192 3.72

  81  0.198  0.789  0.698- 159 3.07  42 3.10 127 3.12  98 3.16 126 3.22 107 3.26 212 3.42 191 3.57

  82  0.156  0.361  0.633-  63 2.80  14 2.89  29 2.95  27 3.02  76 3.07 146 3.27 177 3.75
  83  0.052  0.572  0.008-  10 2.75  12 2.78 167 2.92 194 3.07 209 3.22 108 3.58
  84  0.467  0.834  0.220-  23 2.90 118 3.02 166 3.12 137 3.13 204 3.15  90 3.21 199 3.31
  85  0.461  0.433  0.920-  92 3.05  36 3.06  61 3.09 206 3.12 149 3.19 125 3.21 153 3.49 186 3.64
                           109 3.70
  86  0.889  0.490  0.470-  66 2.81  71 2.86  78 2.99 203 3.00 177 3.31 135 3.34 181 3.64 162 3.74

  87  0.437  0.221  0.589-  14 2.83 152 2.99 195 3.14 189 3.17 180 3.21 124 3.36 132 3.55
  88  0.500  0.389  0.453-  33 2.78  18 2.87 152 3.07 134 3.13 195 3.29 111 3.47
  89  0.944  0.722  0.144-  12 2.92  37 3.02  65 3.04 202 3.17 196 3.33 133 3.43 158 3.59 154 3.62
                           193 3.63 110 3.65
  90  0.381  0.696  0.292-  24 2.90  23 3.13  84 3.21 155 3.31 210 3.35 130 3.44 163 3.45 137 3.48
                           123 3.49 111 3.70 144 3.73
  91  0.634  0.952  0.299-  77 3.07 204 3.07 116 3.25 160 3.28 199 3.33 178 3.36 172 3.68
  92  0.297  0.476  0.902-  27 2.88  85 3.05 214 3.07 205 3.08 190 3.08 209 3.24  93 3.49
  93  0.399  0.607  0.805-  44 3.00 126 3.05  72 3.09 186 3.19 151 3.21 149 3.32 190 3.41  92 3.49
                            98 3.50 159 3.58
  94  0.888  0.275  0.625-  16 2.77  40 2.77 203 2.90  80 3.05  78 3.28
  95  0.280  0.193  0.235- 120 3.05 187 3.07 105 3.08 148 3.20  96 3.24  75 3.25 114 3.27 147 3.34

  96  0.158  0.299  0.150-  35 3.12 194 3.18  95 3.24 214 3.25  75 3.26  60 3.29 101 3.53 120 3.56
                           168 3.57 164 3.62 147 3.68
  97  0.658  0.729  0.336-  39 2.81  24 2.97 158 3.15 137 3.17  57 3.18 204 3.20 162 3.39 116 3.57

  98  0.206  0.641  0.794-  72 2.95 190 3.14  81 3.16 121 3.17 126 3.30 167 3.32 209 3.44  93 3.50
                           159 3.66
  99  0.636  0.211  0.122-  50 2.91 104 3.09 117 3.13  77 3.22 175 3.35
 100  0.680  0.346  0.577-  16 2.75  66 2.81  79 2.95 152 3.03
 101  0.964  0.335  0.157-  60 3.12 194 3.14   7 3.16  31 3.24 102 3.26 128 3.34 135 3.36 104 3.49
                            96 3.53 168 3.55 119 3.60
 102  0.879  0.444  0.038-  12 2.87 108 3.15 184 3.20 136 3.22 101 3.26 128 3.40 194 3.47 142 3.51
                           138 3.53
 103  0.106  0.125  0.356-  25 2.79   5 2.85  60 2.95 114 3.08 105 3.29 168 3.37  74 3.49
 104  0.803  0.246  0.103-   7 3.01 119 3.08  99 3.09 184 3.18 197 3.22 136 3.30 101 3.49
 105  0.264  0.200  0.406-  51 2.86  32 3.05  95 3.08 195 3.09 103 3.29 114 3.39 134 3.39 179 3.52

 106  0.744  0.532  0.857-   2 2.89  15 2.92 142 3.02 149 3.13  79 3.25 109 3.32 108 3.58
 107  0.164  0.877  0.853-  70 2.94  42 2.96 122 3.15 208 3.20  81 3.26 182 3.39 157 3.49 216 3.49
                           167 3.60 126 3.68
 108  0.937  0.479  0.876-  15 2.84   1 2.86 102 3.15 146 3.17 209 3.30 138 3.35 121 3.49 106 3.58
                            83 3.58
 109  0.649  0.377  0.850-  61 2.95  79 3.12 136 3.15 206 3.15 165 3.18 106 3.32 149 3.41 117 3.61
                            85 3.70
 110  0.099  0.828  0.072-  37 2.85 122 3.22 112 3.23 196 3.23 193 3.24 167 3.25 182 3.39 163 3.62
                            89 3.65
 111  0.433  0.496  0.306-  20 2.78  24 3.03  18 3.09 144 3.10 155 3.21 134 3.27 147 3.30  88 3.47
                           115 3.55  90 3.70
 112  0.151  0.948  0.194- 118 3.04 120 3.06 131 3.12 110 3.23 196 3.25 114 3.28 182 3.44
 113  0.188  0.668  0.520-  29 3.02 115 3.05 191 3.07 129 3.20 159 3.30 127 3.49 210 3.58 123 3.61

 114  0.250  0.034  0.318- 103 3.08 179 3.10 148 3.24 131 3.26  95 3.27 112 3.28 130 3.31 105 3.39
                           118 3.67
 115  0.302  0.569  0.438-  68 2.88 113 3.05  30 3.14 155 3.17 210 3.29 111 3.55 134 3.67
 116  0.645  0.880  0.465-  62 2.87   4 3.05 178 3.09 137 3.20  91 3.25 160 3.37  97 3.57 171 3.75

 117  0.644  0.202  0.949-  41 2.90  61 3.05 173 3.10  99 3.13 175 3.28 165 3.38 125 3.47 201 3.52
                           136 3.53 109 3.61
 118  0.311  0.891  0.183-  47 2.82  84 3.02 112 3.04 163 3.06 148 3.19 130 3.21 114 3.67
 119  0.810  0.279  0.271-  55 2.70  45 2.76  67 2.76 104 3.08 128 3.37 101 3.60
 120  0.185  0.102  0.130- 168 2.97  95 3.05 112 3.06 182 3.10 164 3.12  96 3.56
 121  0.032  0.617  0.781-  15 2.88  70 2.91 181 3.11  98 3.17 209 3.17 127 3.47 108 3.49 167 3.58
                           146 3.64
 122  0.256  0.807  0.986-  34 2.94 190 3.08  47 3.08 163 3.13 107 3.15 110 3.22 167 3.33 182 3.34
                           126 3.52
 123  0.192  0.728  0.328-  37 2.90 161 3.28 130 3.29 131 3.35 154 3.44  90 3.49 155 3.50 163 3.57
                           113 3.61
 124  0.434  0.066  0.484-  22 2.94 160 3.06 179 3.06 199 3.08 195 3.10 171 3.34  87 3.36 180 3.44

 125  0.458  0.258  0.960-  41 3.03  61 3.13  11 3.17  85 3.21  75 3.21  50 3.24 205 3.27 206 3.38
                           117 3.47 213 3.50
 126  0.335  0.767  0.811-  34 2.94  93 3.05  81 3.22 215 3.28  98 3.30 159 3.42 122 3.52 151 3.54
                           190 3.55 107 3.68
 127  0.045  0.741  0.633-  13 2.79  17 2.95  81 3.12 181 3.14  70 3.23 129 3.27 212 3.33 121 3.47
                           113 3.49
 128  0.836  0.458  0.222- 135 3.11 162 3.15 133 3.16  45 3.30 101 3.34 184 3.35 119 3.37 102 3.40
                           202 3.43
 129  0.020  0.683  0.464-  71 3.02  17 3.09 154 3.19 113 3.20 127 3.27 161 3.28 181 3.41 198 3.53
                           177 3.63
 130  0.308  0.862  0.360- 191 3.13 131 3.20 118 3.21 210 3.25 123 3.29 199 3.30 114 3.31  90 3.44
                           137 3.68 179 3.73
 131  0.134  0.904  0.361- 112 3.12  17 3.15 154 3.18 130 3.20 191 3.25 114 3.26 123 3.35  74 3.36

 132  0.336  0.317  0.732-  27 2.77  14 2.88 174 3.04 206 3.04 205 3.26  87 3.55
 133  0.787  0.620  0.170-  65 2.89  57 3.01  12 3.08 142 3.11 128 3.16 162 3.26 202 3.37  89 3.43
                           158 3.52
 134  0.337  0.371  0.395-  30 2.77 147 3.11 195 3.12  88 3.13 111 3.27 105 3.39 115 3.67
 135  0.979  0.430  0.317-  31 2.84 128 3.11  60 3.18 202 3.27  86 3.34 101 3.36 161 3.45 203 3.56
                           177 3.67
 136  0.793  0.326  0.937-   1 2.90 109 3.15 138 3.15 102 3.22 201 3.22 104 3.30 184 3.40 117 3.53

 137  0.505  0.806  0.387-  84 3.13 199 3.17  97 3.17 171 3.19 210 3.20 116 3.20  90 3.48 130 3.68

 138  0.967  0.302  0.931-   7 2.97  43 3.00  40 3.06 156 3.13 136 3.15 194 3.24 108 3.35 102 3.53

 139  0.584  0.692  0.086-  23 2.95  57 3.00  64 3.09  19 3.15 204 3.17 153 3.26 186 3.32 142 3.54

 140  0.506  0.975  0.890-  34 2.93  11 2.94 143 3.12 175 3.25 173 3.30 157 3.39 166 3.44 145 3.45
                           215 3.62
 141  0.827  0.944  0.888-  49 3.11  48 3.12 173 3.14 170 3.16 169 3.17 188 3.20 208 3.28 197 3.65
                           193 3.67
 142  0.723  0.565  0.020-  64 2.98 106 3.02 153 3.10 133 3.11 184 3.19 102 3.51 139 3.54
 143  0.600  0.931  0.750-  46 2.93  62 2.96 188 3.11 140 3.12  22 3.24 215 3.27 176 3.29 173 3.72

 144  0.417  0.554  0.144-  23 2.88  38 2.97  36 2.98 111 3.10 153 3.11 155 3.45 186 3.47  90 3.73

 145  0.648  0.854  0.948-  64 2.81  19 2.84 188 3.02 150 3.05 166 3.32 173 3.38 140 3.45
 146  0.009  0.425  0.724-  40 3.04  78 3.05 108 3.17   1 3.24  82 3.27 181 3.31 209 3.43  76 3.58
                           121 3.64
 147  0.335  0.368  0.222-  35 2.90  36 2.94 134 3.11 111 3.30  95 3.34 187 3.36  75 3.49 214 3.57
                           155 3.64  96 3.68
 148  0.385  0.050  0.199-  77 3.14 118 3.19 213 3.20  95 3.20 199 3.21 114 3.24 187 3.34
 149  0.571  0.552  0.852-  44 2.91 106 3.13   2 3.13  85 3.19 186 3.23  93 3.32 151 3.33 109 3.41

 150  0.683  0.956  0.079- 145 3.05 204 3.17 175 3.19 169 3.23 172 3.26 166 3.28 173 3.37 197 3.60

 151  0.529  0.726  0.797-  19 2.87   2 2.91 176 3.16  93 3.21 149 3.33 126 3.54
 152  0.517  0.361  0.621-   6 2.84  87 2.99 100 3.03  88 3.07 206 3.10
 153  0.565  0.514  0.061-  61 3.05 142 3.10 144 3.11 186 3.23 139 3.26 184 3.36  85 3.49
 154  0.008  0.789  0.322-   8 3.02  37 3.07 196 3.12 131 3.18 129 3.19 158 3.32 123 3.44  89 3.62
                           202 3.65
 155  0.268  0.557  0.266-  35 2.90  38 2.95 115 3.17 111 3.21 161 3.26  90 3.31 144 3.45 123 3.50
                           147 3.64
 156  0.010  0.134  0.905-   7 3.03 216 3.09 183 3.12 138 3.13 208 3.14 201 3.35 200 3.38 164 3.39

 157  0.324  0.984  0.844-  11 2.90  34 2.93  42 3.00 215 3.16 216 3.22 140 3.39 174 3.47 107 3.49

 158  0.829  0.754  0.306-  56 2.88  71 2.98  97 3.15  65 3.29 154 3.32 202 3.34 178 3.43 133 3.52
                           198 3.58  89 3.59
 159  0.327  0.689  0.638-  53 2.85  72 2.91  81 3.07 210 3.15 113 3.30 126 3.42  93 3.58  98 3.66

 160  0.599  0.062  0.442-  28 2.83 124 3.06  59 3.15 189 3.24  62 3.27  91 3.28 116 3.37 199 3.60

 161  0.102  0.571  0.343- 177 3.05 202 3.18  31 3.24 155 3.26 129 3.28 123 3.28 135 3.45
 162  0.745  0.558  0.335-  57 3.05  71 3.07  39 3.13 128 3.15  58 3.21  45 3.22 133 3.26  66 3.28
                            52 3.33  97 3.39  86 3.74
 163  0.265  0.733  0.143-  38 2.88  23 2.89  37 3.03 118 3.06 122 3.13  90 3.45 123 3.57 110 3.62

 164  0.172  0.190  0.981-  43 2.97 216 3.09 120 3.12  75 3.25 205 3.27 156 3.39  96 3.62
 165  0.710  0.227  0.774-  16 2.77  46 2.91 201 3.12 109 3.18 117 3.38 170 3.54
 166  0.511  0.899  0.066-  19 3.07  84 3.12  47 3.15 175 3.25 150 3.28 145 3.32  34 3.33 204 3.41
                           140 3.44
 167  0.111  0.706  0.940-  70 2.88  83 2.92 193 3.18 110 3.25 190 3.25  98 3.32 122 3.33 121 3.58
                           107 3.60
 168  0.035  0.150  0.185-   3 2.78   7 2.85  60 2.89 120 2.97 200 3.34 103 3.37 101 3.55  96 3.57

 169  0.855  0.903  0.057-  65 2.95 193 3.10 141 3.17  56 3.19 150 3.23 197 3.23 196 3.24 200 3.42

 170  0.789  0.046  0.750-  46 2.99  48 3.12 141 3.16 183 3.17 201 3.22 192 3.23 173 3.50 207 3.53
                           165 3.54
 171  0.448  0.888  0.535-  22 2.90  69 2.95 176 3.06 137 3.19 210 3.33 124 3.34 215 3.44 116 3.75
                           199 3.75
 172  0.782  0.048  0.197-  67 2.74   3 2.84  56 2.86 197 3.06 150 3.26  91 3.68
 173  0.677  0.036  0.909-  46 3.05 117 3.10 141 3.14 175 3.22 140 3.30 150 3.37 145 3.38 170 3.50
                           201 3.51 143 3.72 197 3.74
 174  0.289  0.169  0.796-  11 2.82 132 3.04 216 3.05 180 3.13 205 3.16 157 3.47  76 3.54
 175  0.552  0.072  0.035-  77 3.09 213 3.15 150 3.19 173 3.22 166 3.25 140 3.25 117 3.28  99 3.35

 176  0.552  0.797  0.638-  53 2.75   4 2.88 171 3.06 151 3.16 215 3.28 143 3.29
 177  0.073  0.488  0.487-  29 2.87  63 2.91 161 3.05 181 3.15  86 3.31 129 3.63 135 3.67  82 3.75

 178  0.794  0.922  0.392-  59 2.81   8 2.90  56 2.95 116 3.09 198 3.25  91 3.36 158 3.43
 179  0.271  0.022  0.489-  69 2.88  32 2.92 124 3.06 114 3.10  74 3.14 180 3.45 105 3.52 191 3.52
                           130 3.73
 180  0.346  0.083  0.653-  22 2.98  32 2.99 174 3.13  69 3.21  87 3.21 124 3.44 179 3.45
 181  0.994  0.576  0.618-   9 2.95 121 3.11 127 3.14  78 3.14 177 3.15 146 3.31 129 3.41  86 3.64

 182  0.187  0.980  0.009-  47 2.91 120 3.10 216 3.22 122 3.34 110 3.39 107 3.39 112 3.44 200 3.52

 183  0.952  0.108  0.744-  48 2.93  40 2.94 156 3.12 170 3.17  80 3.17 211 3.26 201 3.49
 184  0.715  0.403  0.093-  52 2.82  61 2.88 104 3.18 142 3.19 102 3.20 128 3.35 153 3.36 136 3.40

 185  0.911  0.966  0.576-   8 2.95  80 3.09 207 3.12 192 3.16  48 3.21 212 3.22 198 3.64  74 3.65

 186  0.456  0.629  0.971-  19 2.88 190 3.17  23 3.18  93 3.19 153 3.23 149 3.23 139 3.32 144 3.47
                            85 3.64
 187  0.448  0.218  0.243-  50 2.93  95 3.07 195 3.10  28 3.17  77 3.24  20 3.32 148 3.34 147 3.36

 188  0.730  0.825  0.803-   2 2.81 145 3.02  49 3.05 143 3.11 207 3.12 141 3.20
 189  0.593  0.137  0.606-  46 2.90  22 2.92  62 3.04  16 3.16  87 3.17 160 3.24 192 3.31
 190  0.281  0.640  0.952-  38 2.98 122 3.08  92 3.08  98 3.14 186 3.17 167 3.25  93 3.41 126 3.55

 191  0.218  0.835  0.506-  69 2.82  17 2.88 113 3.07 130 3.13 131 3.25 210 3.26 179 3.52  81 3.57
                            74 3.75
 192  0.764  0.068  0.573-  59 2.80  16 2.81  62 2.89 185 3.16 170 3.23 189 3.31 207 3.63  80 3.72

 193  0.961  0.803  0.961-  26 2.82 169 3.10  49 3.11  70 3.15 208 3.17 167 3.18 110 3.24  89 3.63
                           141 3.67
 194  0.069  0.403  0.036-  43 3.03  83 3.07  31 3.13 101 3.14 214 3.16  96 3.18 138 3.24 102 3.47
                           209 3.57
 195  0.433  0.225  0.415- 105 3.09 124 3.10 187 3.10 134 3.12  87 3.14  88 3.29
 196  0.978  0.898  0.189-   3 2.74  56 2.95 154 3.12 110 3.23 169 3.24 112 3.25 200 3.30  89 3.33

 197  0.832  0.081  0.038-   7 3.05 172 3.06 201 3.08 200 3.18 104 3.22 169 3.23 150 3.60 141 3.65
                           173 3.74
 198  0.854  0.788  0.500-  71 2.99  13 3.04   8 3.13   4 3.17 178 3.25  39 3.31 207 3.36 129 3.53
                           158 3.58 185 3.64
 199  0.454  0.970  0.343- 124 3.08 137 3.17 148 3.21 130 3.30  84 3.31  91 3.33 160 3.60  77 3.63
                           171 3.75
 200  0.000  0.022  0.056- 208 3.12   7 3.14 197 3.18 196 3.30   3 3.30 168 3.34 156 3.38 169 3.42
                           182 3.52
 201  0.826  0.156  0.885- 197 3.08 165 3.12 170 3.22 136 3.22 156 3.35 183 3.49 173 3.51 117 3.52

 202  0.941  0.605  0.276-  71 3.05  89 3.17 161 3.18 135 3.27 158 3.34 133 3.37 128 3.43 154 3.65

 203  0.939  0.329  0.482-  55 2.68  63 2.71  94 2.90  86 3.00 135 3.56  78 3.73
 204  0.639  0.824  0.187-  65 2.86  91 3.07  84 3.15 139 3.17 150 3.17  97 3.20 166 3.41
 205  0.289  0.305  0.906-  43 2.89  92 3.08  75 3.10 174 3.16 132 3.26 164 3.27 125 3.27 214 3.56

 206  0.495  0.324  0.788-  41 2.82 132 3.04 152 3.10  85 3.12 109 3.15 125 3.38
 207  0.780  0.880  0.647-   4 2.88  13 2.93 188 3.12  62 3.12 185 3.12 198 3.36 170 3.53 192 3.63

 208  0.009  0.959  0.895-  48 2.93 200 3.12 156 3.14 193 3.17 107 3.20 141 3.28 216 3.56
 209  0.121  0.486  0.864-  27 2.87  43 2.93 121 3.17  83 3.22  92 3.24 108 3.30 146 3.43  98 3.44
                           194 3.57
 210  0.369  0.734  0.474-  68 3.08 159 3.15 137 3.20 130 3.25 191 3.26 115 3.29 171 3.33  90 3.35
                           113 3.58
 211  0.124  0.096  0.684-  42 3.00  32 3.01  76 3.17 216 3.20 183 3.26 212 3.33  74 3.51  80 3.64

 212  0.066  0.923  0.657-  48 2.91  42 3.02  17 3.07  74 3.10 185 3.22 127 3.33 211 3.33  81 3.42

 213  0.377  0.096  0.027-  11 2.82  47 2.85  75 3.07 175 3.15 148 3.20 125 3.50
 214  0.242  0.427  0.056-  36 2.85  38 2.87  92 3.07 194 3.16  96 3.25  75 3.38 205 3.56 147 3.57

 215  0.424  0.899  0.724-  22 2.99  69 3.06 157 3.16 143 3.27 126 3.28 176 3.28 171 3.44 140 3.62

 216  0.165  0.072  0.856- 174 3.05 156 3.09 164 3.09 211 3.20 182 3.22 157 3.22  42 3.30 107 3.49
                           208 3.56
 

IMPORTANT INFORMATION: All symmetrisations will be switched off!
NOSYMM: (Re-)initialisation of all symmetry stuff for point group C_1.

 
 
 KPOINTS: k-points                                

Automatic generation of k-mesh.
Space group operators:
 irot       det(A)        alpha          n_x          n_y          n_z        tau_x        tau_y        tau_z
    1     1.000000     0.000001     1.000000     0.000000     0.000000     0.000000     0.000000     0.000000
 
 Subroutine IBZKPT returns following result:
 ===========================================
 
 Found      1 irreducible k-points:
 
 Following reciprocal coordinates:
            Coordinates               Weight
  0.000000  0.000000  0.000000      1.000000
 
 Following cartesian coordinates:
            Coordinates               Weight
  0.000000  0.000000  0.000000      1.000000
 
 
 Subroutine IBZKPT_HF returns following result:
 ==============================================
 
 Found      1 k-points in 1st BZ
 the following      1 k-points will be used (e.g. in the exchange kernel)
 Following reciprocal coordinates:   # in IRBZ
  0.000000  0.000000  0.000000    1.00000000   1 t-inv F


--------------------------------------------------------------------------------------------------------




 Dimension of arrays:
   k-points           NKPTS =      1   k-points in BZ     NKDIM =      1   number of bands    NBANDS=   1820
   number of dos      NEDOS =   3001   number of ions     NIONS =    216
   non local maximal  LDIM  =      6   non local SUM 2l+1 LMDIM =     18
   total plane-waves  NPLWV = ******
   max r-space proj   IRMAX =      1   max aug-charges    IRDMAX=  13528
   dimension x,y,z NGX =   120 NGY =  120 NGZ =  120
   dimension x,y,z NGXF=   240 NGYF=  240 NGZF=  240
   support grid    NGXF=   240 NGYF=  240 NGZF=  240
   ions per type =              73 143
   NGX,Y,Z   is equivalent  to a cutoff of  11.12, 11.12, 11.09 a.u.
   NGXF,Y,Z  is equivalent  to a cutoff of  22.24, 22.23, 22.18 a.u.

 SYSTEM =  GeSn_216                                
 POSCAR =  Ge0.34Sn0.66 (216-atom Ge73Sn143 superce

 Startparameter for this run:
   NWRITE =      2    write-flag & timer
   PREC   = accura    normal or accurate (medium, high low for compatibility)
   ISTART =      0    job   : 0-new  1-cont  2-samecut
   ICHARG =      1    charge: 1-file 2-atom 10-const
   ISPIN  =      1    spin polarized calculation?
   LNONCOLLINEAR =      F non collinear calculations
   LSORBIT =      F    spin-orbit coupling
   INIWAV =      1    electr: 0-lowe 1-rand  2-diag
   LASPH  =      T    aspherical Exc in radial PAW
   METAGGA=      F    non-selfconsistent MetaGGA calc.

 Electronic Relaxation 1
   ENCUT  =  400.0 eV  29.40 Ry    5.42 a.u.  29.26 29.26 29.33*2*pi/ulx,y,z
   ENINI  =  400.0     initial cutoff
   ENAUG  =  531.4 eV  augmentation charge cutoff
   NELM   =    100;   NELMIN=  5; NELMDL=  0     # of ELM steps 
   EDIFF  = 0.1E-05   stopping-criterion for ELM
   LREAL  =      F    real-space projection
   NLSPLINE    = F    spline interpolate recip. space projectors
   LCOMPAT=      F    compatible to vasp.4.4
   GGA_COMPAT  = T    GGA compatible to vasp.4.4-vasp.4.6
   LMAXPAW     = -100 max onsite density
   LMAXMIX     =    2 max onsite mixed and CHGCAR
   VOSKOWN=      0    Vosko Wilk Nusair interpolation
   ROPT   =    0.00000   0.00000
 Ionic relaxation
   EDIFFG = -.3E-01   stopping-criterion for IOM
   NSW    =      0    number of steps for IOM
   NBLOCK =      1;   KBLOCK =      1    inner block; outer block 
   IBRION =     -1    ionic relax: 0-MD 1-quasi-New 2-CG
   NFREE  =      0    steps in history (QN), initial steepest desc. (CG)
   ISIF   =      0    stress and relaxation
   IWAVPR =     10    prediction:  0-non 1-charg 2-wave 3-comb
   ISYM   =      0    0-nonsym 1-usesym 2-fastsym
   LCORR  =      T    Harris-Foulkes like correction to forces

   POTIM  = 0.5000    time-step for ionic-motion
   TEIN   =    0.0    initial temperature
   TEBEG  =    0.0;   TEEND  =   0.0 temperature during run
   SMASS  =  -3.00    Nose mass-parameter (am)
   estimated Nose-frequenzy (Omega)   =  0.10E-29 period in steps =****** mass=  -0.736E-26a.u.
   SCALEE = 1.0000    scale energy and forces
   NPACO  =    256;   APACO  = 16.0  distance and # of slots for P.C.
   PSTRESS=    0.0 pullay stress

  Mass of Ions in am
   POMASS =  72.61118.71
  Ionic Valenz
   ZVAL   =  14.00 14.00
  Atomic Wigner-Seitz radii
   RWIGS  =  -1.00 -1.00
  virtual crystal weights 
   VCA    =   1.00  1.00
   NELECT =    3024.0000    total number of electrons
   NUPDOWN=      -1.0000    fix difference up-down

 DOS related values:
   EMIN   =  10.00;   EMAX   =-10.00  energy-range for DOS
   EFERMI =   0.00
   ISMEAR =     0;   SIGMA  =   0.05  broadening in eV -4-tet -1-fermi 0-gaus

 Electronic relaxation 2 (details)
   IALGO  =     53    algorithm
   LDIAG  =      T    sub-space diagonalisation (order eigenvalues)
   LSUBROT=      F    optimize rotation matrix (better conditioning)
   TURBO    =      0    0=normal 1=particle mesh
   IRESTART =      0    0=no restart 2=restart with 2 vectors
   NREBOOT  =      0    no. of reboots
   NMIN     =      0    reboot dimension
   EREF     =   0.00    reference energy to select bands
   IMIX   =      4    mixing-type and parameters
     AMIX     =   0.40;   BMIX     =  1.00
     AMIX_MAG =   1.60;   BMIX_MAG =  1.00
     AMIN     =   0.10
     WC   =   100.;   INIMIX=   1;  MIXPRE=   1;  MAXMIX= -45

 Intra band minimization:
   WEIMIN = 0.0000     energy-eigenvalue tresh-hold
   EBREAK =  0.14E-09  absolut break condition
   DEPER  =   0.30     relativ break condition  

   TIME   =   0.30     timestep for ELM

  volume/ion in A,a.u.               =      26.80       180.87
  Fermi-wavevector in a.u.,A,eV,Ry     =   1.318451  2.491511 23.651189  1.738313
  Thomas-Fermi vector in A             =   2.448420
 
 Write flags
   LWAVE        =      T    write WAVECAR
   LDOWNSAMPLE  =      F    k-point downsampling of WAVECAR
   LCHARG       =      T    write CHGCAR
   LVTOT        =      F    write LOCPOT, total local potential
   LVHAR        =      T    write LOCPOT, Hartree potential only
   LELF         =      F    write electronic localiz. function (ELF)
   LORBIT       =     11    0 simple, 1 ext, 2 COOP (PROOUT), +10 PAW based schemes


 Dipole corrections
   LMONO  =      F    monopole corrections only (constant potential shift)
   LDIPOL =      F    correct potential (dipole corrections)
   IDIPOL =      0    1-x, 2-y, 3-z, 4-all directions 
   EPSILON=  1.0000000 bulk dielectric constant

 Core level calculations are selected ICORELEVEL =  1
 Exchange correlation treatment:
   GGA     =    --    GGA type
   LEXCH   =     8    internal setting for exchange type
   VOSKOWN=      0    Vosko Wilk Nusair interpolation
   EXXOEP  =     0    0=HF, 1=EXX-LHF (local Hartree Fock) 2=EXX OEP
   LHFCALC =     T    Hartree Fock is set to
   LSYMGRAD=     F    symmetrize gradient (conserves proper symmetry)
   PRECFOCK=normal    Normal, Fast or Accurate (Low or Medium for compatibility)
   LRHFCALC=     F    long range Hartree Fock
   LRSCOR  =     F    long range correlation only (use DFT for short range part)
   LTHOMAS =     F    Thomas Fermi screening in HF
   LMODELHF=     F    short range full HF, long range fraction AEXX
   ENCUT4O =  -1.0   cutoff for four orbital integrals eV
   LMAXFOCK=     4    L truncation for augmentation on plane wave grid
   LMAXFOCKAE=  -1    L truncation for all-electron charge restoration on plane wave grid
   NMAXFOCKAE=   1    number of basis functions for all-electron charge restoration
   LFOCKAEDFT=     F  apply the AE augmentation even for DFT
   NKREDX  =     1    reduce k-point grid by
   NKREDY  =     1    reduce k-point grid by
   NKREDZ  =     1    reduce k-point grid by
   SHIFTRED=     F    shift reduced grid of Gamma
   HFKIDENT=     F    idential grid for each k-point
   ODDONLY =     F    use only odd q-grid points
   EVENONLY=     F    use only even q-grid points
   HFALPHA =   -1.0000 decay constant for conv. correction
   MCALPHA =    0.0000 extent of test-charge in conv. correction in multipole expansion
   AEXX    =    0.2500 exact exchange contribution
   HFSCREEN=    0.2070 screening length (either q_TF or 0.3 A-1)
   HFSCREENC=   0.2070 screening length for correlation (either q_TF or 0.3 A-1)
   HFRCUT  =    0.0000 spherical cutoff for potential kernel
   ALDAX   =    0.7500 LDA exchange part
   AGGAX   =    0.7500 GGA exchange part
   ALDAC   =    1.0000 LDA correlation
   AGGAC   =    1.0000 GGA correlation
   ENCUTFOCK=  -1.0 apply spherical cutoff to Coloumb kernel
   NBANDSGWLOW=     1    first orbital included in HF term
   NBLOCK_FOCK=    64    blocking factor in FOCK_ACC
 Linear response parameters
   LEPSILON=     F    determine dielectric tensor
   LRPA    =     F    only Hartree local field effects (RPA)
   LNABLA  =     F    use nabla operator in PAW spheres
   LVEL    =     F    velocity operator in full k-point grid
   LINTERFAST=   F  fast interpolation
   KINTER  =     0    interpolate to denser k-point grid
   CSHIFT  =0.1000    complex shift for real part using Kramers Kronig
   OMEGAMAX=  -1.0    maximum frequency
   DEG_THRESHOLD= 0.2000000E-02 threshold for treating states as degnerate
   RTIME   =   -0.100 relaxation time in fs
  (WPLASMAI=    0.000 imaginary part of plasma frequency in eV, 0.658/RTIME)
   DFIELD  = 0.0000000 0.0000000 0.0000000 field for delta impulse in time
 
 Orbital magnetization related:
   ORBITALMAG=     F  switch on orbital magnetization
   LCHIMAG   =     F  perturbation theory with respect to B field
   DQ        =  0.001000  dq finite difference perturbation B field
   LLRAUG    =     F  two centre corrections for induced B field



--------------------------------------------------------------------------------------------------------


 Static calculation
 charge density and potential will be updated during run
 non-spin polarized calculation
 Conjugate gradient for all bands (Freysoldt, et al. PRB 79, 241103 (2009))
 perform sub-space diagonalisation
    before iterative eigenvector-optimisation
 modified Broyden-mixing scheme, WC =      100.0
 initial mixing is a Kerker type mixing with AMIX =  0.4000 and BMIX =      1.0000
 Hartree-type preconditioning will be used
 using additional bands          308
 reciprocal scheme for non local part
 use partial core corrections
 no Harris-corrections to forces 
 use gradient corrections 
 use of overlap-Matrix (Vanderbilt PP)
 Gauss-broadening in eV      SIGMA  =   0.05


--------------------------------------------------------------------------------------------------------


  energy-cutoff  :      400.00
  volume of cell :     5789.14
      direct lattice vectors                 reciprocal lattice vectors
    17.941091344  0.262861985  0.041869900     0.055750214 -0.000813696 -0.000138430
     0.261916529 17.943090466  0.012133282    -0.000816658  0.055743699 -0.000027826
     0.044803441  0.009635149 17.987202942    -0.000129222 -0.000035708  0.055595422

  length of vectors
    17.943065739 17.945006072 17.987261322     0.055756324  0.055749688  0.055595583


 
 k-points in units of 2pi/SCALE and weight: k-points                                
   0.00000000  0.00000000  0.00000000       1.000
 
 k-points in reciprocal lattice and weights: k-points                                
   0.00000000  0.00000000  0.00000000       1.000
 
 position of ions in fractional coordinates (direct lattice) 
   0.85328707  0.37298607  0.79558031
   0.68369916  0.67694105  0.81458283
   0.93687655  0.04061161  0.22816576
   0.69779048  0.76293324  0.57754694
   0.09412618  0.17985282  0.50385013
   0.40777873  0.47875683  0.61569013
   0.95528779  0.19287142  0.05400739
   0.95173059  0.90994345  0.42606710
   0.84968300  0.62773785  0.68215568
   0.11794475  0.59246010  0.14326427
   0.41336387  0.11172640  0.87488393
   0.90350115  0.60103529  0.04535111
   0.89308504  0.76058725  0.66247733
   0.29057156  0.28453428  0.58197220
   0.87683649  0.61655570  0.82203599
   0.74744050  0.21573656  0.62501856
   0.05768831  0.84420828  0.50636161
   0.54099590  0.54060925  0.43040717
   0.51377080  0.77557793  0.94785059
   0.52423261  0.38385722  0.24469557
   0.64005710  0.54797732  0.63426869
   0.49473906  0.01144155  0.62567728
   0.42439699  0.71253856  0.12415738
   0.52813044  0.63188185  0.32121383
   0.98540242  0.03075926  0.36044113
   0.85661974  0.69081518  0.94371339
   0.23346824  0.43105122  0.76318976
   0.59692115  0.16949758  0.32619785
   0.19524909  0.51256838  0.58490863
   0.30175973  0.42395833  0.53544279
   0.07341032  0.46985942  0.19687453
   0.22352736  0.15837920  0.56570091
   0.58705735  0.31109570  0.34901124
   0.39696205  0.86217033  0.92667986
   0.18771324  0.41869166  0.27096621
   0.39807869  0.40416950  0.07532142
   0.10404822  0.72552948  0.19352205
   0.25781838  0.57830375  0.10348611
   0.72039984  0.66977712  0.46774873
   0.95502320  0.27103725  0.76378878
   0.53583433  0.17789228  0.83215634
   0.21651103  0.95812368  0.71956846
   0.12861512  0.32659038  0.89713364
   0.51363643  0.53988119  0.70206673
   0.71117059  0.38309966  0.33205156
   0.62769146  0.09105842  0.75654902
   0.34242217  0.94253944  0.03867381
   0.93456502  0.94709647  0.75110016
   0.89930179  0.81178611  0.79933118
   0.50648260  0.31180585  0.12413022
   0.16087762  0.32026203  0.37406009
   0.64216739  0.45660399  0.22247327
   0.48378296  0.66147371  0.62877348
   0.70921020  0.65950121  0.67583285
   0.92638104  0.24531282  0.35991398
   0.81913104  0.89557466  0.23118798
   0.62785242  0.60091555  0.21924527
   0.66593019  0.54183218  0.49481866
   0.77280438  0.07499704  0.41808366
   0.04949388  0.26747266  0.29348362
   0.59270581  0.35591611  0.00306503
   0.63923050  0.97220735  0.59518505
   0.08881492  0.32634241  0.49749661
   0.72908275  0.72999408  0.00350388
   0.78214020  0.77655953  0.13037656
   0.74736469  0.42850032  0.46348643
   0.73585171  0.14974766  0.30219890
   0.43926070  0.58176934  0.51867319
   0.30202634  0.91779252  0.60709454
   0.04692491  0.77566142  0.80947551
   0.86327000  0.64097556  0.42312048
   0.29039202  0.54172722  0.69163539
   0.90319336  0.12430208  0.42636001
   0.09783235  0.00942942  0.51163350
   0.31564866  0.25191205  0.06846680
   0.11287153  0.25536812  0.75837429
   0.55657361  0.07501881  0.20616260
   0.86942206  0.45726730  0.63177973
   0.72405285  0.43615663  0.70569791
   0.96000015  0.12963704  0.56917876
   0.19800862  0.78850321  0.69773018
   0.15607412  0.36147326  0.63263751
   0.05204468  0.57155478  0.00770478
   0.46661912  0.83390210  0.21997560
   0.46098178  0.43255037  0.92001353
   0.88935271  0.49009644  0.46978537
   0.43671131  0.22092664  0.58909303
   0.50012474  0.38907990  0.45302817
   0.94372661  0.72198322  0.14421877
   0.38099881  0.69625461  0.29177904
   0.63381542  0.95235552  0.29929126
   0.29661260  0.47591691  0.90230848
   0.39875218  0.60745584  0.80518624
   0.88796398  0.27502713  0.62535502
   0.27973309  0.19267842  0.23535252
   0.15837813  0.29877679  0.14989060
   0.65845845  0.72921573  0.33628900
   0.20598960  0.64097981  0.79406587
   0.63606961  0.21054557  0.12231515
   0.67977180  0.34610844  0.57667245
   0.96419374  0.33494519  0.15708004
   0.87900219  0.44403187  0.03794490
   0.10647964  0.12489113  0.35577932
   0.80254155  0.24645818  0.10280584
   0.26360908  0.19979433  0.40595653
   0.74444733  0.53235028  0.85668129
   0.16432635  0.87722960  0.85295343
   0.93709301  0.47921827  0.87634964
   0.64865608  0.37688078  0.85010051
   0.09905728  0.82824206  0.07238787
   0.43285124  0.49592408  0.30572520
   0.15063503  0.94829034  0.19362635
   0.18833827  0.66804937  0.52018223
   0.25024051  0.03398731  0.31805726
   0.30225516  0.56889052  0.43787517
   0.64509959  0.88026303  0.46499823
   0.64404582  0.20178264  0.94864487
   0.31125798  0.89098036  0.18347457
   0.80972178  0.27918833  0.27062565
   0.18475749  0.10223404  0.13040465
   0.03233747  0.61736109  0.78140608
   0.25564597  0.80695662  0.98592879
   0.19164694  0.72784344  0.32827618
   0.43404292  0.06646366  0.48380743
   0.45782423  0.25821690  0.95976481
   0.33534352  0.76674798  0.81094807
   0.04526248  0.74093732  0.63338064
   0.83622294  0.45789791  0.22176034
   0.01964193  0.68287423  0.46367809
   0.30844207  0.86235069  0.35964444
   0.13390062  0.90418357  0.36056790
   0.33607312  0.31665277  0.73164975
   0.78657513  0.62024523  0.17043357
   0.33730949  0.37138633  0.39462358
   0.97863464  0.43036116  0.31677234
   0.79295796  0.32582357  0.93746450
   0.50540130  0.80576364  0.38719079
   0.96744100  0.30208393  0.93054560
   0.58356890  0.69234994  0.08618617
   0.50625125  0.97475559  0.89026668
   0.82749627  0.94406257  0.88816376
   0.72305505  0.56512220  0.02011091
   0.60035212  0.93124067  0.74990101
   0.41673263  0.55369660  0.14405090
   0.64840740  0.85449697  0.94786810
   0.00913525  0.42493789  0.72373405
   0.33495146  0.36846333  0.22184130
   0.38453876  0.05026463  0.19869414
   0.57063765  0.55241303  0.85233777
   0.68318232  0.95604204  0.07861798
   0.52895815  0.72591030  0.79664906
   0.51693027  0.36109682  0.62061159
   0.56461069  0.51407161  0.06052664
   0.00833168  0.78913591  0.32158767
   0.26750587  0.55675635  0.26596703
   0.01021984  0.13392284  0.90511760
   0.32362370  0.98383402  0.84367806
   0.82876216  0.75367226  0.30583919
   0.32680550  0.68925384  0.63770066
   0.59944390  0.06224423  0.44166049
   0.10246344  0.57124508  0.34255642
   0.74469637  0.55839366  0.33519833
   0.26486541  0.73315742  0.14335849
   0.17203952  0.18961415  0.98082402
   0.71004678  0.22735189  0.77446047
   0.51142903  0.89921515  0.06607674
   0.11062561  0.70572211  0.93983674
   0.03463338  0.15025408  0.18482772
   0.85530799  0.90280042  0.05736385
   0.78911752  0.04624543  0.74972316
   0.44812153  0.88761473  0.53502278
   0.78164400  0.04773467  0.19727649
   0.67697256  0.03591351  0.90927261
   0.28866614  0.16864780  0.79559427
   0.55194867  0.07151632  0.03451717
   0.55151160  0.79666771  0.63762337
   0.07269434  0.48770395  0.48727736
   0.79436777  0.92185623  0.39157195
   0.27076377  0.02202581  0.48871755
   0.34566293  0.08330793  0.65346597
   0.99399601  0.57610124  0.61825504
   0.18688270  0.98020889  0.00850205
   0.95246082  0.10848453  0.74414188
   0.71524117  0.40315350  0.09285490
   0.91064906  0.96596363  0.57550968
   0.45628158  0.62883486  0.97084472
   0.44788173  0.21751483  0.24279619
   0.72958236  0.82496487  0.80311168
   0.59348134  0.13658450  0.60572437
   0.28089988  0.64000636  0.95168466
   0.21816262  0.83510144  0.50574698
   0.76406133  0.06814501  0.57346377
   0.96120896  0.80345331  0.96057349
   0.06926570  0.40299075  0.03622956
   0.43316443  0.22476558  0.41466194
   0.97818069  0.89767258  0.18882782
   0.83186442  0.08085591  0.03827622
   0.85422019  0.78826113  0.50013113
   0.45383826  0.97017055  0.34328615
   0.00007715  0.02228310  0.05618014
   0.82571301  0.15639721  0.88478389
   0.94106982  0.60498392  0.27601909
   0.93850790  0.32923232  0.48205115
   0.63937649  0.82415862  0.18659591
   0.28868314  0.30483490  0.90641237
   0.49500397  0.32444974  0.78789862
   0.77955657  0.87979079  0.64660588
   0.00930406  0.95906166  0.89500388
   0.12057161  0.48638094  0.86411448
   0.36900724  0.73399295  0.47387096
   0.12414785  0.09564037  0.68404152
   0.06562001  0.92327895  0.65710136
   0.37745530  0.09600752  0.02706613
   0.24156121  0.42709965  0.05595677
   0.42378632  0.89893361  0.72435428
   0.16495770  0.07191636  0.85586944
 
 position of ions in cartesian coordinates  (Angst):
  15.44223720  6.92448506 14.35051701
  12.48010722 12.33398163 14.68890670
  16.82944720  0.97716540  4.14378355
  12.74482371 13.87836741 10.42692732
   1.75840698  3.25671235  9.06897777
   7.46897479  8.70349885 11.09742580
  17.19184147  3.71233862  1.01377985
  17.33250388 16.58147666  7.71464491
  15.43921820 11.49347906 12.31326537
   2.27765134 10.66294869  2.58905033
   7.48465975  2.12180424 15.75537784
  16.36924954 11.02236364  0.86086161
  16.25181185 13.88842709 11.96273602
   5.31376944  5.18741199 10.48367054
  15.92971982 11.30132212 14.83032216
  13.49440627  4.07347638 11.27624858
   1.27879004 15.16774846  9.12068738
   9.86693514  9.84655502  7.77103195
   9.46321258 14.06044848 17.08010275
   9.51680692  7.02774341  4.42799590
  11.65526465 10.00676449 11.44216760
   8.90718790  0.34137326 11.27503773
   7.80633349 12.89789799  2.25965884
   9.65512832 11.47983349  5.80751785
  17.70340016  0.81441387  6.52495967
  15.59191059 12.62962489 17.01901275
   4.33576802  7.80311437 13.74265450
  10.76842585  3.20136128  5.89443650
   3.66343790  9.25402000 10.53526448
   5.54893025  7.69160297  9.64889687
   1.44894594  8.45192372  3.54999683
   4.07715225  2.90601978 10.18665786
  10.62956751  5.73969610  6.30609065
   7.38926744 15.58327508 16.69546037
   3.48958287  7.56457580  4.88686377
   7.25119956  7.35741533  1.37639306
   2.06543721 13.04745604  3.49407993
   4.78164688 10.44532426  1.87923716
  13.12114170 12.21174404  8.45178094
  17.23936798  5.12164450 13.78169907
   9.69732913  3.34080566 14.99275865
   4.16763171 17.25554550 12.96371449
   2.43322976  5.90249282 16.14627254
   9.38805693  9.82891711 12.65627314
  12.87439379  7.06413096  6.00710375
  11.31921557  1.80615507 13.63558692
   6.39202678 17.00245292  0.72140691
  17.04882849 17.24673618 13.56081250
  16.38288848 14.81004554 14.42523546
   9.17407911  5.72909166  2.25774501
   2.98696122  5.79238327  6.73891650
  11.65074355  8.36383167  4.03409945
   8.88101643 12.00210907 11.33815804
  12.92701890 12.02642600 12.19403914
  16.70066373  4.64864826  6.51560970
  14.94102857 16.28692309  4.20358827
  11.43157020 10.94943304  3.97718828
  12.11159881  9.90195921  8.93486026
  13.90332853  1.55284791  7.55342292
   0.97117879  4.81512403  5.28426713
  10.72714669  6.54206430  0.08426620
  11.74979634 17.61816854 10.74427487
   1.70120054  5.88373094  8.95625068
  13.27189463 13.29003174  0.10240877
  14.24168380 14.14072900  2.38727990
  13.54153530  7.88953961  8.37331569
  13.25474369  2.88327496  5.46833990
   8.05642976 10.55920233  9.35493052
   5.68626704 16.55327491 10.94371436
   1.08130998 13.93789716 14.57157640
  15.67484529 11.73208018  7.65467609
   5.38282466  9.80325752 12.45931769
  16.25593371  2.47188668  7.70834875
   1.78061173  0.19983906  9.20706622
   5.73212892  4.60371245  1.24779898
   2.12590128  4.61906987 13.64885664
  10.01442340  1.49435782  3.73250243
  15.74645241  8.43941382 11.40590099
  13.13615258  8.02312339 12.72913953
  17.28290571  2.58392076 10.27970195
   3.79027346 14.20695611 12.56807214
   2.92316021  6.53306899 11.39029999
   1.08378316 10.26921399  0.14770135
   8.59992475 15.08755675  3.98640107
   8.42502802  7.89132950 16.57301955
  16.10537053  9.03214820  8.49330831
   7.91933523  4.08457757 10.61710151
   9.09498741  7.11712465  8.17437060
  17.12704618 13.20406964  2.64236611
   7.03096773 12.59592081  5.27268903
  11.63418724 17.25769092  5.42150558
   5.48663070  8.62608225 16.24819931
   7.34922704 11.01220993 14.50711449
  16.03109512  5.17427410 11.28890355
   5.07972722  3.53304509  4.24738373
   2.92644674  5.40405476  2.70636906
  12.01952375 13.26070775  6.08531579
   3.89913826 11.56295641 14.29942591
  11.47240856  3.94621522  2.22929413
  12.31233631  6.39449762 10.40538586
  17.39345339  6.26491521  2.86986527
  15.88825800  8.19872591  0.72471394
   1.95901206  2.27235025  6.40544840
  14.46762876  4.63416960  1.88578215
   4.79995230  3.65813201  7.31548397
  13.53401117  9.75595035 15.44692924
   3.21617018 15.79162357 15.35977039
  16.97724994  8.85342660 15.80812930
  11.77439674  6.94110382 15.32266233
   1.99736926 14.88795806  1.31625205
   7.90941192  9.01513642  5.52328184
   2.95960495 17.05672113  3.50060933
   3.57727316 12.04138921  9.37261471
   4.51273978  0.67868057  5.73185048
   5.59140759 10.29132440  7.89570744
  11.82517959 15.96869163  8.40170833
  11.65023767  3.79903969 17.09288216
   5.82589057 16.07052681  3.32403714
  14.61254144  5.22495407  4.90508893
   3.34737030  1.88421683  2.35459116
   0.77687626 11.09339519 14.06415424
   4.84209604 14.55599483 17.75459609
   3.64369741 13.11330041  5.92162558
   7.82628793  1.31131839  8.72132220
   8.32449832  4.76280128 17.28578656
   6.25358588 13.85379100 14.61003156
   1.03449959 13.31270591 11.40363119
  15.13261881  8.43805146  4.02941662
   0.55202817 12.26250472  8.34937985
   5.77576447 15.55777936  6.49237512
   2.65529853 16.26251910  6.50218507
   6.14523550  5.77711979 13.17824587
  14.28210478 11.33751905  3.10608266
   6.16665308  6.75628658  7.11680370
  17.68468458  7.98230714  5.74404539
  14.35387145  6.06375283 16.89951863
   9.29584116 14.59447127  6.99541698
  17.47775974  5.68358868 16.78208445
  10.65506231 12.57712615  1.58308256
   9.37789158 17.63177980 16.04643120
  15.13324455 17.16547495 16.02168359
  13.12131255 10.33029618  0.39887004
  11.04847773 16.87437077 13.52505734
   7.62811437 10.04595921  2.61523942
  11.89941101 15.51189095 17.08701250
   0.30762042  7.63407362 13.02348970
   6.11584061  6.70155429  4.00879955
   6.92111235  1.00489787  3.59066224
  10.42073605 10.07020827 15.36176753
  12.51096200 17.33468888  1.45432229
   9.71590694 13.17179302 14.36044337
   9.39667601  6.62105399 11.18909176
  10.26708760  9.37303129  1.11858255
   0.37057543 14.16482566  5.79438641
   4.95708720 10.06280923  4.80195864
   0.25898416  2.41439704 16.28258670
   6.10164450 17.74622015 15.20089568
  15.07999947 13.74400638  5.54503630
   6.07234546 12.45939308 11.49249739
  10.79076839  1.27868040  7.97009083
   2.00327213 10.28013650  6.17285302
  13.52193622 10.21828997  6.06723595
   4.95042350 13.22611417  2.59860370
   3.18018407  3.45693689 17.65178455
  12.83325982  4.27350188 13.96286578
   9.41407463 16.26977063  1.22085959
   2.21169244 12.70097039 16.91822875
   0.66899552  2.70690722  3.32780693
  15.58418724 16.42441028  1.07858082
  14.20333208  1.04443871 13.51902393
   8.29624109 16.04950054  9.65309574
  14.04488760  1.06387281  3.58175888
  12.19577134  0.83111064 16.38405144
   5.25880265  3.10960771 14.32464819
   9.92283927  1.42864268  0.64484517
  10.13194812 14.44579589 11.50181897
   1.45378521  8.77471959  8.77371798
  14.51081790 16.75353170  7.08772938
   4.88546268  0.47109351  8.80226579
   6.25266744  1.59195965 11.76950877
  18.01196356 10.60427734 11.16928734
   3.60999335 17.63718299  0.17264599
  17.14994067  2.20408338 13.42622672
  12.94196002  7.42272402  1.70503853
  16.61682455 17.57729302 10.40165852
   8.39438890 11.41253402 17.48951533
   8.10333590  4.02295878  4.38861620
  13.34155779 15.00193693 14.48628976
  10.71061528  2.61258800 10.92179332
   5.24991738 11.56669953 17.13767170
   4.15546151 15.04652036  9.11624049
  13.75163553  1.42910017 10.34782721
  17.49861243 14.67835598 17.32802451
   1.34987540  7.24945596  0.65945811
   7.84889068  4.15084686  7.47947222
  17.79320456 16.36596616  3.44833245
  14.94744788  1.66983933  0.72429331
  15.55450874 14.37320163  9.04129041
   8.41183772 17.53046243  6.20553124
   0.00973750  0.40038932  1.01079725
  14.89479698  3.03182295 15.95125750
  17.05464147 11.10531222  5.01155440
  16.94568499  6.15878807  8.71404183
  11.69533286 14.95781841  3.39310888
   5.29974235  5.55429740 16.31960902
   9.00119078  5.95934020 14.19675479
  14.24549749 15.99731170 11.67394591
   0.45821833 17.21959936 16.11064258
   2.32929285  8.76719676 15.55395218
   6.83386849 13.27166561  8.54796909
   2.28304518  1.75530841 12.31035215
   1.44855695 16.59005808 11.83336542
   6.79831856  1.82215097  0.50381292
   4.44824330  7.72752402  1.02180203
   7.87108824 16.24802374 13.05775838
   3.01670310  1.34200926 15.40247670
 


--------------------------------------------------------------------------------------------------------


 k-point  1 :   0.0000 0.0000 0.0000  plane waves:  105237

 maximum and minimum number of plane-waves per node :      3292     3285

 maximum number of plane-waves:    105237
 maximum index in each direction: 
   IXMAX=   29   IYMAX=   29   IZMAX=   29
   IXMIN=  -29   IYMIN=  -29   IZMIN=  -29


 parallel 3D FFT for wavefunctions:
    minimum data exchange during FFTs selected (reduces bandwidth)
 parallel 3D FFT for charge:
    minimum data exchange during FFTs selected (reduces bandwidth)


 FFT grid for exact exchange (Hartree Fock) 
  NGX = 90; NGY = 90; NGZ = 90

 
 Radii for the augmentation spheres in the non-local exchange
 for species   1 augmentation radius   1.239 (default was   0.991)
       energy cutoff for augmentation   1600.0
 for species   2 augmentation radius   1.362 (default was   1.089)
       energy cutoff for augmentation   1600.0

 real space projection operators:
  total allocation   :      51476.95 KBytes
  max/ min on nodes  :       1827.93       1120.90

 Maximum index for augmentation-charges in exchange          148
  SETUP_FOCK is finished

 total amount of memory used by VASP MPI-rank0    74703. kBytes
=======================================================================

   base      :      30000. kBytes
   nonl-proj :      12370. kBytes
   fftplans  :       6853. kBytes
   grid      :       7372. kBytes
   one-center:        108. kBytes
   HF        :        129. kBytes
   nonlr-proj:       7128. kBytes
   wavefun   :      10743. kBytes
 
     INWAV:  cpu time    0.0001: real time    0.0005
 Broyden mixing: mesh for mixing (old mesh)
   NGX = 59   NGY = 59   NGZ = 59
  (NGX  =240   NGY  =240   NGZ  =240)
  gives a total of 205379 points

 initial charge density was supplied:
 charge density of overlapping atoms calculated
 number of electron    3024.0000000 magnetization 
 charge density for first step will be calculated from the start-wavefunctions


--------------------------------------------------------------------------------------------------------


 Maximum index for augmentation-charges          666 (set IRDMAX)


--------------------------------------------------------------------------------------------------------


 First call to EWALD:  gamma=   0.099
 Maximum number of real-space cells 3x 3x 3
 Maximum number of reciprocal cells 3x 3x 3

    FEWALD:  cpu time    0.0121: real time    0.0130


--------------------------------------- Iteration      1(   1)  ---------------------------------------


    POTLOK:  cpu time    0.2909: real time    0.2911
    SETDIJ:  cpu time    0.5593: real time    0.5597
    TRIAL :  cpu time    6.9628: real time    6.9655
    CORREC:  cpu time    0.0012: real time    0.0016
    --------------------------------------------
      LOOP:  cpu time    7.8441: real time    7.8518

 eigenvalue-minimisations  :  3920
 total energy-change (2. order) : 0.5769912E+05  (-0.9300959E+05)
 number of electron    3024.0000000 magnetization 
 augmentation part     3024.0000000 magnetization 

 Free energy of the ion-electron system (eV)
  ---------------------------------------------------
  alpha Z        PSCENC =      9965.03512203
  Ewald energy   TEWEN  =   -283967.21309702
  -Hartree energ DENC   =   -131243.26008303
  -exchange      EXHF   =         0.00000000
  -V(xc)+E(xc)   XCENC  =     10253.07617833
  PAW double counting   =    361543.82081121  -395906.79836300
  entropy T*S    EENTRO =        -0.02219191
  eigenvalues    EBANDS =     27068.56195624
  atomic energy  EATOM  =    459985.91857502
  ---------------------------------------------------
  free energy    TOTEN  =     57699.11890788 eV

  energy without entropy =    57699.14109978  energy(sigma->0) =    57699.13000383
  exchange ACFDT corr.  =         0.00000000  see jH, gK, PRB 81, 115126


--------------------------------------------------------------------------------------------------------




--------------------------------------- Iteration      1(   2)  ---------------------------------------


    TRIAL :  cpu time    7.8336: real time    7.8347
    CORREC:  cpu time    0.0012: real time    0.0016
    --------------------------------------------
      LOOP:  cpu time    7.8489: real time    7.8807

 eigenvalue-minimisations  :  4564
 total energy-change (2. order) :-0.3232715E+05  (-0.3033831E+05)
 number of electron    3024.0000000 magnetization 
 augmentation part     3024.0000000 magnetization 

 Free energy of the ion-electron system (eV)
  ---------------------------------------------------
  alpha Z        PSCENC =      9965.03512203
  Ewald energy   TEWEN  =   -283967.21309702
  -Hartree energ DENC   =   -131243.26008303
  -exchange      EXHF   =         0.00000000
  -V(xc)+E(xc)   XCENC  =     10253.07617833
  PAW double counting   =    361543.82081121  -395906.79836300
  entropy T*S    EENTRO =        -0.05200435
  eigenvalues    EBANDS =     -5258.56258224
  atomic energy  EATOM  =    459985.91857502
  ---------------------------------------------------
  free energy    TOTEN  =     25371.96455695 eV

  energy without entropy =    25372.01656130  energy(sigma->0) =    25371.99055913
  exchange ACFDT corr.  =         0.00000000  see jH, gK, PRB 81, 115126


--------------------------------------------------------------------------------------------------------




--------------------------------------- Iteration      1(   3)  ---------------------------------------


    TRIAL :  cpu time    8.3454: real time    8.3466
    CORREC:  cpu time    0.0012: real time    0.0016
    --------------------------------------------
      LOOP:  cpu time    8.3645: real time    8.3954

 eigenvalue-minimisations  :  5012
 total energy-change (2. order) :-0.1342542E+05  (-0.1290657E+05)
 number of electron    3024.0000000 magnetization 
 augmentation part     3024.0000000 magnetization 

 Free energy of the ion-electron system (eV)
  ---------------------------------------------------
  alpha Z        PSCENC =      9965.03512203
  Ewald energy   TEWEN  =   -283967.21309702
  -Hartree energ DENC   =   -131243.26008303
  -exchange      EXHF   =         0.00000000
  -V(xc)+E(xc)   XCENC  =     10253.07617833
  PAW double counting   =    361543.82081121  -395906.79836300
  entropy T*S    EENTRO =        -0.09075457
  eigenvalues    EBANDS =    -18683.94731065
  atomic energy  EATOM  =    459985.91857502
  ---------------------------------------------------
  free energy    TOTEN  =     11946.54107832 eV

  energy without entropy =    11946.63183289  energy(sigma->0) =    11946.58645561
  exchange ACFDT corr.  =         0.00000000  see jH, gK, PRB 81, 115126


--------------------------------------------------------------------------------------------------------




--------------------------------------- Iteration      1(   4)  ---------------------------------------


    TRIAL :  cpu time    8.5696: real time    8.5711
    CORREC:  cpu time    0.0013: real time    0.0016
    --------------------------------------------
      LOOP:  cpu time    8.5838: real time    8.6492

 eigenvalue-minimisations  :  5404
 total energy-change (2. order) :-0.4001192E+04  (-0.3796739E+04)
 number of electron    3024.0000000 magnetization 
 augmentation part     3024.0000000 magnetization 

 Free energy of the ion-electron system (eV)
  ---------------------------------------------------
  alpha Z        PSCENC =      9965.03512203
  Ewald energy   TEWEN  =   -283967.21309702
  -Hartree energ DENC   =   -131243.26008303
  -exchange      EXHF   =         0.00000000
  -V(xc)+E(xc)   XCENC  =     10253.07617833
  PAW double counting   =    361543.82081121  -395906.79836300
  entropy T*S    EENTRO =        -0.09521009
  eigenvalues    EBANDS =    -22685.13534090
  atomic energy  EATOM  =    459985.91857502
  ---------------------------------------------------
  free energy    TOTEN  =      7945.34859255 eV

  energy without entropy =     7945.44380264  energy(sigma->0) =     7945.39619760
  exchange ACFDT corr.  =         0.00000000  see jH, gK, PRB 81, 115126


--------------------------------------------------------------------------------------------------------




--------------------------------------- Iteration      1(   5)  ---------------------------------------


    TRIAL :  cpu time    9.9619: real time    9.9634
    CORREC:  cpu time    0.0014: real time    0.0018
    CHARGE:  cpu time    0.0882: real time    0.0882
    --------------------------------------------
      LOOP:  cpu time   10.0648: real time   10.0990

 eigenvalue-minimisations  :  6580
 total energy-change (2. order) :-0.1140807E+04  (-0.1098738E+04)
 number of electron    3024.0000007 magnetization 
 augmentation part     1684.8358671 magnetization 

 Free energy of the ion-electron system (eV)
  ---------------------------------------------------
  alpha Z        PSCENC =      9965.03512203
  Ewald energy   TEWEN  =   -283967.21309702
  -Hartree energ DENC   =   -131243.26008303
  -exchange      EXHF   =         0.00000000
  -V(xc)+E(xc)   XCENC  =     10253.07617833
  PAW double counting   =    361543.82081121  -395906.79836300
  entropy T*S    EENTRO =        -0.08122841
  eigenvalues    EBANDS =    -23825.95617091
  atomic energy  EATOM  =    459985.91857502
  ---------------------------------------------------
  free energy    TOTEN  =      6804.54174422 eV

  energy without entropy =     6804.62297263  energy(sigma->0) =     6804.58235843
  exchange ACFDT corr.  =         0.00000000  see jH, gK, PRB 81, 115126


--------------------------------------------------------------------------------------------------------




--------------------------------------- Iteration      1(   6)  ---------------------------------------


    POTLOK:  cpu time    0.1327: real time    0.1327
    SETDIJ:  cpu time    0.5586: real time    0.5592
    TRIAL :  cpu time  438.2356: real time  438.2902
    CORREC:  cpu time    0.0118: real time    0.0122
    CHARGE:  cpu time    0.0788: real time    0.0788
    --------------------------------------------
      LOOP:  cpu time  439.0274: real time  439.1233

 eigenvalue-minimisations  :     0
 total energy-change (2. order) :-0.7320150E+04  (-0.3788184E+03)
 number of electron    3024.0000007 magnetization 
 augmentation part     1700.8444235 magnetization 

 Free energy of the ion-electron system (eV)
  ---------------------------------------------------
  alpha Z        PSCENC =      9965.03512203
  Ewald energy   TEWEN  =   -283967.21309702
  -Hartree energ DENC   =   -127376.08850515
  -exchange      EXHF   =      7363.20492194
  -V(xc)+E(xc)   XCENC  =     10135.20588062
  PAW double counting   =    468890.98237028  -502936.87787560
  entropy T*S    EENTRO =        -0.07944095
  eigenvalues    EBANDS =    -42575.69411738
  atomic energy  EATOM  =    459985.91857502
  ---------------------------------------------------
  free energy    TOTEN  =      -515.60795366 eV

  energy without entropy =     -515.52851271  energy(sigma->0) =     -515.56823318
  exchange ACFDT corr.  =        -0.03438581  see jH, gK, PRB 81, 115126


--------------------------------------------------------------------------------------------------------




--------------------------------------- Iteration      1(   7)  ---------------------------------------


    POTLOK:  cpu time    0.1333: real time    0.1333
    SETDIJ:  cpu time    0.5565: real time    0.5570
    TRIAL :  cpu time  438.0135: real time  438.0676
    CORREC:  cpu time    0.0117: real time    0.0121
    CHARGE:  cpu time    0.0787: real time    0.0787
    --------------------------------------------
      LOOP:  cpu time  438.8099: real time  438.9124

 eigenvalue-minimisations  :     0
 total energy-change (2. order) :-0.2429805E+03  (-0.1772802E+03)
 number of electron    3024.0000007 magnetization 
 augmentation part     1692.0139356 magnetization 

 Free energy of the ion-electron system (eV)
  ---------------------------------------------------
  alpha Z        PSCENC =      9965.03512203
  Ewald energy   TEWEN  =   -283967.21309702
  -Hartree energ DENC   =   -130106.53344099
  -exchange      EXHF   =      7437.32347717
  -V(xc)+E(xc)   XCENC  =     10221.90056246
  PAW double counting   =    467357.25468023  -502149.19610484
  entropy T*S    EENTRO =        -0.07454854
  eigenvalues    EBANDS =    -39502.99881913
  atomic energy  EATOM  =    459985.91857502
  ---------------------------------------------------
  free energy    TOTEN  =      -758.58848602 eV

  energy without entropy =     -758.51393748  energy(sigma->0) =     -758.55121175
  exchange ACFDT corr.  =        -0.03395598  see jH, gK, PRB 81, 115126


--------------------------------------------------------------------------------------------------------




--------------------------------------- Iteration      1(   8)  ---------------------------------------


    POTLOK:  cpu time    0.1336: real time    0.1336
    SETDIJ:  cpu time    0.5566: real time    0.5570
    TRIAL :  cpu time  431.4166: real time  431.4708
    CORREC:  cpu time    0.0116: real time    0.0121
    CHARGE:  cpu time    0.0781: real time    0.0782
    --------------------------------------------
      LOOP:  cpu time  432.2059: real time  432.3016

 eigenvalue-minimisations  :     0
 total energy-change (2. order) :-0.1176900E+03  (-0.9245085E+02)
 number of electron    3024.0000007 magnetization 
 augmentation part     1676.1184294 magnetization 

 Free energy of the ion-electron system (eV)
  ---------------------------------------------------
  alpha Z        PSCENC =      9965.03512203
  Ewald energy   TEWEN  =   -283967.21309702
  -Hartree energ DENC   =   -130615.08370442
  -exchange      EXHF   =      7453.26468887
  -V(xc)+E(xc)   XCENC  =     10233.12623242
  PAW double counting   =    463965.09314891  -498866.98603858
  entropy T*S    EENTRO =        -0.07630359
  eigenvalues    EBANDS =    -39029.35885125
  atomic energy  EATOM  =    459985.91857502
  ---------------------------------------------------
  free energy    TOTEN  =      -876.27847255 eV

  energy without entropy =     -876.20216896  energy(sigma->0) =     -876.24032075
  exchange ACFDT corr.  =        -0.03872606  see jH, gK, PRB 81, 115126


--------------------------------------------------------------------------------------------------------




--------------------------------------- Iteration      1(   9)  ---------------------------------------


    POTLOK:  cpu time    0.1337: real time    0.1337
    SETDIJ:  cpu time    0.5562: real time    0.5566
    TRIAL :  cpu time  437.8223: real time  437.8759
    CORREC:  cpu time    0.0116: real time    0.0120
    CHARGE:  cpu time    0.0782: real time    0.0783
    --------------------------------------------
      LOOP:  cpu time  438.6161: real time  438.7145

 eigenvalue-minimisations  :     0
 total energy-change (2. order) :-0.5231460E+02  (-0.4148368E+02)
 number of electron    3024.0000006 magnetization 
 augmentation part     1671.1989412 magnetization 

 Free energy of the ion-electron system (eV)
  ---------------------------------------------------
  alpha Z        PSCENC =      9965.03512203
  Ewald energy   TEWEN  =   -283967.21309702
  -Hartree energ DENC   =   -130029.72244502
  -exchange      EXHF   =      7441.63292685
  -V(xc)+E(xc)   XCENC  =     10211.35325295
  PAW double counting   =    458494.72796550  -493230.75132974
  entropy T*S    EENTRO =        -0.07196080
  eigenvalues    EBANDS =    -39799.49773646
  atomic energy  EATOM  =    459985.91857502
  ---------------------------------------------------
  free energy    TOTEN  =      -928.59306947 eV

  energy without entropy =     -928.52110867  energy(sigma->0) =     -928.55708907
  exchange ACFDT corr.  =        -0.03700412  see jH, gK, PRB 81, 115126


--------------------------------------------------------------------------------------------------------




--------------------------------------- Iteration      1(  10)  ---------------------------------------


    POTLOK:  cpu time    0.1337: real time    0.1338
    SETDIJ:  cpu time    0.5575: real time    0.5578
    TRIAL :  cpu time  437.3153: real time  437.3696
    CORREC:  cpu time    0.0115: real time    0.0118
    CHARGE:  cpu time    0.0785: real time    0.0786
    --------------------------------------------
      LOOP:  cpu time  438.0995: real time  438.2005

 eigenvalue-minimisations  :     0
 total energy-change (2. order) :-0.2273227E+02  (-0.2878060E+02)
 number of electron    3024.0000007 magnetization 
 augmentation part     1673.0149201 magnetization 

 Free energy of the ion-electron system (eV)
  ---------------------------------------------------
  alpha Z        PSCENC =      9965.03512203
  Ewald energy   TEWEN  =   -283967.21309702
  -Hartree energ DENC   =   -130120.70081720
  -exchange      EXHF   =      7444.15373982
  -V(xc)+E(xc)   XCENC  =     10212.37423773
  PAW double counting   =    451929.75159481  -486668.05414941
  entropy T*S    EENTRO =        -0.05618720
  eigenvalues    EBANDS =    -39732.51858614
  atomic energy  EATOM  =    459985.91857502
  ---------------------------------------------------
  free energy    TOTEN  =      -951.32534116 eV

  energy without entropy =     -951.26915396  energy(sigma->0) =     -951.29724756
  exchange ACFDT corr.  =        -0.03992234  see jH, gK, PRB 81, 115126


--------------------------------------------------------------------------------------------------------




--------------------------------------- Iteration      1(  11)  ---------------------------------------


    POTLOK:  cpu time    0.1343: real time    0.1343
    SETDIJ:  cpu time    0.5562: real time    0.5565
    TRIAL :  cpu time  437.7623: real time  437.8189
    CORREC:  cpu time    0.0124: real time    0.0119
    CHARGE:  cpu time    0.0787: real time    0.0787
    --------------------------------------------
      LOOP:  cpu time  438.5596: real time  438.6490

 eigenvalue-minimisations  :     0
 total energy-change (2. order) :-0.1595855E+02  (-0.1707071E+02)
 number of electron    3024.0000007 magnetization 
 augmentation part     1674.2425135 magnetization 

 Free energy of the ion-electron system (eV)
  ---------------------------------------------------
  alpha Z        PSCENC =      9965.03512203
  Ewald energy   TEWEN  =   -283967.21309702
  -Hartree energ DENC   =   -130484.66961589
  -exchange      EXHF   =      7453.94830658
  -V(xc)+E(xc)   XCENC  =     10224.89327964
  PAW double counting   =    446078.56326129  -480898.89771183
  entropy T*S    EENTRO =        -0.04392246
  eigenvalues    EBANDS =    -39324.80582078
  atomic energy  EATOM  =    459985.91857502
  ---------------------------------------------------
  free energy    TOTEN  =      -967.28388815 eV

  energy without entropy =     -967.23996568  energy(sigma->0) =     -967.26192692
  exchange ACFDT corr.  =        -0.02635644  see jH, gK, PRB 81, 115126


--------------------------------------------------------------------------------------------------------




--------------------------------------- Iteration      1(  12)  ---------------------------------------


    POTLOK:  cpu time    0.1343: real time    0.1343
    SETDIJ:  cpu time    0.5568: real time    0.5571
    TRIAL :  cpu time  434.3756: real time  434.4288
    CORREC:  cpu time    0.0115: real time    0.0118
    CHARGE:  cpu time    0.0784: real time    0.0785
    --------------------------------------------
[...]
     11.65024      3.79904     17.09288        -0.095733     -0.041360     -0.002428
      5.82589     16.07053      3.32404        -0.011186     -0.006008     -0.061766
     14.61254      5.22495      4.90509        -0.012779     -0.064323      0.119876
      3.34737      1.88422      2.35459        -0.081990     -0.005021      0.059029
      0.77688     11.09340     14.06415        -0.037029      0.015225      0.007171
      4.84210     14.55599     17.75460        -0.027656     -0.010162      0.002528
      3.64370     13.11330      5.92163        -0.037012      0.028134     -0.068384
      7.82629      1.31132      8.72132         0.015960     -0.027146     -0.010600
      8.32450      4.76280     17.28579        -0.011635      0.049953     -0.031665
      6.25359     13.85379     14.61003        -0.011362     -0.054232      0.012806
      1.03450     13.31271     11.40363        -0.093742      0.058914     -0.021991
     15.13262      8.43805      4.02942         0.026066      0.071196      0.039470
      0.55203     12.26250      8.34938         0.013321      0.015887     -0.017897
      5.77576     15.55778      6.49238        -0.078627     -0.006753      0.050508
      2.65530     16.26252      6.50219         0.045367     -0.047516      0.002839
      6.14524      5.77712     13.17825        -0.065574     -0.019888      0.051437
     14.28210     11.33752      3.10608        -0.034727      0.007856     -0.049164
      6.16665      6.75629      7.11680         0.107414      0.017824      0.071272
     17.68468      7.98231      5.74405         0.005335      0.072383     -0.167554
     14.35387      6.06375     16.89952         0.067326      0.011650     -0.066898
      9.29584     14.59447      6.99542        -0.021924      0.042390     -0.052555
     17.47776      5.68359     16.78208        -0.009712     -0.048501      0.025525
     10.65506     12.57713      1.58308        -0.045617     -0.027833      0.052796
      9.37789     17.63178     16.04643        -0.034775      0.008485     -0.008889
     15.13324     17.16547     16.02168        -0.018875     -0.010447     -0.069971
     13.12131     10.33030      0.39887        -0.045674     -0.000976      0.011706
     11.04848     16.87437     13.52506         0.004992      0.055903     -0.014186
      7.62811     10.04596      2.61524        -0.028035      0.034059     -0.002968
     11.89941     15.51189     17.08701         0.034049     -0.097305      0.032870
      0.30762      7.63407     13.02349        -0.131565     -0.008335      0.018483
      6.11584      6.70155      4.00880        -0.054065      0.026587      0.040432
      6.92111      1.00490      3.59066         0.007956      0.049663      0.069447
     10.42074     10.07021     15.36177        -0.060933      0.013557     -0.036941
     12.51096     17.33469      1.45432        -0.051562     -0.070857     -0.066965
      9.71591     13.17179     14.36044         0.031970     -0.052696      0.078042
      9.39668      6.62105     11.18909        -0.059155     -0.070162     -0.104352
     10.26709      9.37303      1.11858         0.022060      0.054822     -0.029116
      0.37058     14.16483      5.79439         0.035910      0.084773     -0.024074
      4.95709     10.06281      4.80196        -0.001080     -0.052935     -0.002183
      0.25898      2.41440     16.28259        -0.008362     -0.005255     -0.013797
      6.10164     17.74622     15.20090         0.051071     -0.009999     -0.009183
     15.08000     13.74401      5.54504         0.009874      0.037409     -0.008220
      6.07235     12.45939     11.49250         0.029017     -0.025500      0.011454
     10.79077      1.27868      7.97009        -0.083717      0.043179     -0.045180
      2.00327     10.28014      6.17285        -0.073497     -0.001285      0.034673
     13.52194     10.21829      6.06724         0.043077      0.006923     -0.060019
      4.95042     13.22611      2.59860         0.072784      0.005085     -0.042894
      3.18018      3.45694     17.65178         0.029617      0.011929     -0.045454
     12.83326      4.27350     13.96287         0.010086     -0.109889     -0.033726
      9.41407     16.26977      1.22086         0.041889     -0.009848     -0.010530
      2.21169     12.70097     16.91823        -0.077684     -0.025138     -0.010196
      0.66900      2.70691      3.32781        -0.018651     -0.034864     -0.035123
     15.58419     16.42441      1.07858         0.002067     -0.015661      0.008075
     14.20333      1.04444     13.51902         0.052039      0.024722      0.097328
      8.29624     16.04950      9.65310         0.037001      0.048623      0.111550
     14.04489      1.06387      3.58176         0.096072      0.029870      0.036622
     12.19577      0.83111     16.38405        -0.019199      0.045454      0.005901
      5.25880      3.10961     14.32465         0.072085     -0.018244      0.062954
      9.92284      1.42864      0.64485         0.036280     -0.036389      0.027701
     10.13195     14.44580     11.50182        -0.066917     -0.096933     -0.029702
      1.45379      8.77472      8.77372         0.057226      0.038048      0.044079
     14.51082     16.75353      7.08773        -0.014832      0.058420      0.023902
      4.88546      0.47109      8.80227         0.027935      0.025801      0.044572
      6.25267      1.59196     11.76951         0.009301      0.057373     -0.065681
     18.01196     10.60428     11.16929        -0.030027      0.011347      0.062034
      3.60999     17.63718      0.17265         0.069968     -0.001669      0.023819
     17.14994      2.20408     13.42623        -0.003912     -0.026835      0.014964
     12.94196      7.42272      1.70504        -0.044952      0.050859      0.034332
     16.61682     17.57729     10.40166        -0.032901      0.045180     -0.005794
      8.39439     11.41253     17.48952         0.061627      0.047358     -0.045294
      8.10334      4.02296      4.38862        -0.037457     -0.033517      0.023947
     13.34156     15.00194     14.48629        -0.059475      0.029969      0.018884
     10.71062      2.61259     10.92179        -0.024153     -0.182079      0.050828
      5.24992     11.56670     17.13767        -0.005637      0.005225     -0.030125
      4.15546     15.04652      9.11624         0.017489      0.020433     -0.031927
     13.75164      1.42910     10.34783        -0.065476      0.020820     -0.026117
     17.49861     14.67836     17.32802        -0.022852     -0.014064     -0.022008
      1.34988      7.24946      0.65946         0.004695      0.002816      0.044883
      7.84889      4.15085      7.47947        -0.120035      0.008433      0.008620
     17.79320     16.36597      3.44833        -0.074471      0.087416      0.015869
     14.94745      1.66984      0.72429         0.064164      0.016615      0.047343
     15.55451     14.37320      9.04129        -0.010768      0.001407     -0.032585
      8.41184     17.53046      6.20553         0.003977     -0.049157      0.023732
      0.00974      0.40039      1.01080        -0.075076      0.042317     -0.063285
     14.89480      3.03182     15.95126        -0.034363      0.000544     -0.019013
     17.05464     11.10531      5.01155        -0.022874      0.003608      0.050171
     16.94568      6.15879      8.71404         0.101224     -0.009912      0.014954
     11.69533     14.95782      3.39311         0.025759      0.040083     -0.030647
      5.29974      5.55430     16.31961        -0.058463      0.016571      0.029219
      9.00119      5.95934     14.19675        -0.030946     -0.067927      0.032494
     14.24550     15.99731     11.67395         0.017886     -0.100774     -0.028288
      0.45822     17.21960     16.11064        -0.045763     -0.000769      0.008126
      2.32929      8.76720     15.55395         0.042908     -0.038315     -0.035260
      6.83387     13.27167      8.54797        -0.046658     -0.009466     -0.004458
      2.28305      1.75531     12.31035         0.033983     -0.026128      0.055329
      1.44856     16.59006     11.83337        -0.007098      0.056890     -0.063696
      6.79832      1.82215      0.50381         0.067813     -0.032292     -0.065473
      4.44824      7.72752      1.02180         0.089134      0.037758     -0.031177
      7.87109     16.24802     13.05776         0.017880      0.052559     -0.042801
      3.01670      1.34201     15.40248         0.046665      0.053051      0.018030
 -----------------------------------------------------------------------------------
    total drift:                                0.005362      0.006641     -0.004410


--------------------------------------------------------------------------------------------------------



  FREE ENERGIE OF THE ION-ELECTRON SYSTEM (eV)
  ---------------------------------------------------
  free  energy   TOTEN  =      -991.06520346 eV

  energy  without entropy=     -991.06368808  energy(sigma->0) =     -991.06444577
 


--------------------------------------------------------------------------------------------------------


    POTLOK:  cpu time    0.6919: real time    0.8261


--------------------------------------------------------------------------------------------------------


 writing wavefunctions
     LOOP+:  cpu time15530.5483: real time15813.9117
    4ORBIT:  cpu time    0.0000: real time    0.0000
 


 total charge     
 
# of ion       s       p       d       tot
------------------------------------------
    1        1.255   0.939  10.006  12.201
    2        1.226   1.009  10.001  12.236
    3        1.199   1.065  10.003  12.267
    4        1.198   1.062  10.005  12.265
    5        1.216   1.022  10.009  12.247
    6        1.186   1.042  10.016  12.244
    7        1.260   0.934   9.997  12.190
    8        1.213   1.023  10.013  12.249
    9        1.188   1.072  10.008  12.269
   10        1.186   1.085  10.014  12.285
   11        1.201   1.058  10.001  12.261
   12        1.209   1.045  10.002  12.257
   13        1.205   1.048  10.007  12.260
   14        1.202   1.047  10.006  12.255
   15        1.188   1.070  10.008  12.266
   16        1.195   1.065   9.998  12.258
   17        1.255   0.948  10.010  12.213
   18        1.173   1.113  10.015  12.300
   19        1.213   1.024  10.004  12.240
   20        1.180   1.121  10.016  12.317
   21        1.189   1.089  10.011  12.289
   22        1.238   0.992  10.005  12.235
   23        1.244   0.963   9.994  12.201
   24        1.219   1.013  10.006  12.238
   25        1.180   1.116  10.017  12.314
   26        1.192   1.041  10.012  12.245
   27        1.232   1.003  10.007  12.242
   28        1.199   1.060  10.008  12.267
   29        1.216   1.018  10.003  12.236
   30        1.212   1.026  10.014  12.253
   31        1.214   1.021  10.007  12.242
   32        1.203   1.031  10.008  12.243
   33        1.182   1.089  10.009  12.280
   34        1.205   1.037  10.016  12.258
   35        1.219   1.015  10.006  12.241
   36        1.250   0.950  10.005  12.205
   37        1.218   1.017  10.006  12.240
   38        1.216   1.037  10.004  12.257
   39        1.199   1.035  10.012  12.246
   40        1.212   1.040  10.008  12.260
   41        1.221   1.007  10.008  12.236
   42        1.250   0.949  10.007  12.205
   43        1.220   1.004   9.998  12.222
   44        1.221   1.022  10.010  12.253
   45        1.184   1.058  10.009  12.252
   46        1.218   1.026  10.003  12.247
   47        1.220   1.014  10.005  12.239
   48        1.224   0.991  10.003  12.217
   49        1.243   0.962  10.010  12.215
   50        1.216   1.017  10.012  12.245
   51        1.210   1.011  10.008  12.229
   52        1.197   1.055  10.011  12.264
   53        1.211   1.040  10.008  12.259
   54        1.174   1.116  10.017  12.308
   55        1.166   1.144  10.011  12.321
   56        1.257   0.933  10.003  12.193
   57        1.223   1.006  10.005  12.234
   58        1.166   1.141  10.018  12.325
   59        1.184   1.098  10.007  12.288
   60        1.207   1.030  10.009  12.246
   61        1.256   0.939  10.003  12.198
   62        1.236   0.980  10.004  12.220
   63        1.178   1.124  10.007  12.309
   64        1.209   1.016  10.003  12.229
   65        1.211   1.011  10.010  12.232
   66        1.194   1.064  10.007  12.265
   67        1.189   1.087  10.007  12.283
   68        1.176   1.099  10.013  12.287
   69        1.220   1.001  10.005  12.226
   70        1.256   0.940  10.004  12.200
   71        1.223   0.997  10.003  12.224
   72        1.194   1.048  10.012  12.254
   73        1.172   1.132  10.015  12.319
   74        1.320   0.891   9.976  12.187
   75        1.299   0.952   9.979  12.230
   76        1.286   0.934   9.973  12.192
   77        1.277   0.970   9.978  12.224
   78        1.269   0.995   9.976  12.241
   79        1.240   1.059   9.979  12.277
   80        1.240   1.051   9.979  12.270
   81        1.308   0.905   9.984  12.197
   82        1.261   0.989   9.986  12.237
   83        1.245   1.062   9.982  12.290
   84        1.281   0.988   9.982  12.250
   85        1.299   0.932   9.976  12.206
   86        1.251   1.033   9.981  12.265
   87        1.279   0.980   9.972  12.231
   88        1.278   0.968   9.978  12.224
   89        1.312   0.878   9.978  12.168
   90        1.314   0.890   9.975  12.179
   91        1.315   0.895   9.966  12.176
   92        1.267   1.019   9.978  12.264
   93        1.324   0.903   9.983  12.210
   94        1.237   1.075   9.978  12.290
   95        1.279   0.994   9.979  12.251
   96        1.329   0.848   9.974  12.152
   97        1.272   0.972   9.977  12.221
   98        1.300   0.920   9.976  12.196
   99        1.318   0.881   9.965  12.164
  100        1.252   1.013   9.973  12.239
  101        1.339   0.820   9.980  12.139
  102        1.304   0.925   9.975  12.204
  103        1.262   0.994   9.983  12.239
  104        1.296   0.937   9.969  12.202
  105        1.281   0.961   9.978  12.219
  106        1.299   0.943   9.979  12.220
  107        1.301   0.921   9.978  12.199
  108        1.283   0.967   9.980  12.230
  109        1.298   0.928   9.976  12.202
  110        1.299   0.920   9.976  12.195
  111        1.276   0.979   9.985  12.240
  112        1.293   0.959   9.969  12.222
  113        1.301   0.922   9.971  12.194
  114        1.315   0.925   9.977  12.217
  115        1.314   0.905   9.971  12.190
  116        1.300   0.909   9.974  12.183
  117        1.288   0.955   9.977  12.220
  118        1.260   1.021   9.980  12.262
  119        1.218   1.098   9.979  12.295
  120        1.277   0.996   9.977  12.250
  121        1.292   0.947   9.979  12.218
  122        1.295   0.952   9.985  12.232
  123        1.335   0.845   9.968  12.148
  124        1.275   1.014   9.977  12.266
  125        1.332   0.862   9.979  12.173
  126        1.303   0.918   9.973  12.195
  127        1.286   0.977   9.984  12.248
  128        1.304   0.922   9.971  12.197
  129        1.311   0.901   9.971  12.182
  130        1.309   0.925   9.973  12.207
  131        1.313   0.912   9.977  12.201
  132        1.274   0.997   9.976  12.247
  133        1.287   0.942   9.985  12.214
  134        1.291   0.964   9.977  12.232
  135        1.327   0.888   9.976  12.191
  136        1.292   0.946   9.975  12.213
  137        1.316   0.906   9.978  12.200
  138        1.302   0.920   9.983  12.205
  139        1.307   0.877   9.981  12.165
  140        1.299   0.919   9.978  12.195
  141        1.309   0.913   9.976  12.198
  142        1.286   0.963   9.973  12.221
  143        1.299   0.931   9.979  12.209
  144        1.287   0.945   9.979  12.211
  145        1.264   1.011   9.984  12.259
  146        1.309   0.905   9.969  12.183
  147        1.314   0.902   9.981  12.197
  148        1.309   0.910   9.972  12.191
  149        1.297   0.928   9.975  12.201
  150        1.301   0.922   9.975  12.199
  151        1.299   0.923   9.972  12.193
  152        1.256   1.025   9.971  12.252
  153        1.310   0.917   9.972  12.200
  154        1.293   0.914   9.977  12.183
  155        1.304   0.915   9.981  12.200
  156        1.290   0.965   9.976  12.230
  157        1.309   0.914   9.983  12.206
  158        1.318   0.882   9.981  12.181
  159        1.280   0.964   9.975  12.219
  160        1.294   0.925   9.974  12.193
  161        1.311   0.892   9.970  12.173
  162        1.332   0.852   9.984  12.169
  163        1.276   0.962   9.980  12.218
  164        1.308   0.907   9.968  12.183
  165        1.284   0.947   9.975  12.206
  166        1.330   0.859   9.975  12.164
  167        1.271   1.006   9.975  12.252
  168        1.252   1.022   9.987  12.261
  169        1.295   0.935   9.978  12.208
  170        1.311   0.903   9.977  12.192
  171        1.296   0.945   9.975  12.216
  172        1.250   1.022   9.981  12.254
  173        1.313   0.906   9.978  12.197
  174        1.259   1.011   9.973  12.243
  175        1.287   0.960   9.973  12.219
  176        1.266   0.990   9.979  12.236
  177        1.306   0.915   9.976  12.197
  178        1.254   1.010   9.976  12.240
  179        1.278   0.962   9.985  12.225
  180        1.321   0.853   9.975  12.149
  181        1.295   0.924   9.977  12.197
  182        1.323   0.889   9.973  12.185
  183        1.302   0.914   9.979  12.196
  184        1.276   0.978   9.982  12.236
  185        1.302   0.924   9.974  12.200
  186        1.300   0.939   9.975  12.214
  187        1.305   0.905   9.978  12.189
  188        1.274   0.988   9.975  12.238
  189        1.310   0.910   9.977  12.197
  190        1.297   0.949   9.979  12.225
  191        1.271   0.995   9.985  12.250
  192        1.268   0.985   9.987  12.240
  193        1.268   0.977   9.979  12.225
  194        1.291   0.944   9.982  12.218
  195        1.287   0.966   9.970  12.223
  196        1.254   1.025   9.984  12.262
  197        1.296   0.951   9.972  12.218
  198        1.341   0.827   9.976  12.144
  199        1.308   0.918   9.964  12.190
  200        1.341   0.859   9.972  12.173
  201        1.300   0.918   9.968  12.186
  202        1.311   0.882   9.969  12.162
  203        1.235   1.091   9.987  12.313
  204        1.269   0.993   9.975  12.237
  205        1.291   0.965   9.981  12.237
  206        1.267   0.998   9.969  12.234
  207        1.298   0.919   9.984  12.201
  208        1.291   0.945   9.972  12.208
  209        1.296   0.928   9.983  12.208
  210        1.315   0.902   9.973  12.190
  211        1.310   0.894   9.972  12.176
  212        1.288   0.937   9.977  12.202
  213        1.285   0.963   9.976  12.225
  214        1.281   0.970   9.977  12.228
  215        1.322   0.877   9.973  12.172
  216        1.288   0.970   9.980  12.238
--------------------------------------------------
tot        273.104 210.4192157.2442640.767
 

 total amount of memory used by VASP MPI-rank0    90024. kBytes
=======================================================================

   base      :      30000. kBytes
   nonl-proj :      12370. kBytes
   fftplans  :       6853. kBytes
   grid      :       7372. kBytes
   one-center:        108. kBytes
   HF        :        129. kBytes
   nonlr-proj:      22449. kBytes
   wavefun   :      10743. kBytes
 
  
  
 General timing and accounting informations for this job:
 ========================================================
  
                  Total CPU time used (sec):    15769.575
                            User time (sec):    12977.721
                          System time (sec):     2791.855
                         Elapsed time (sec):    17478.314
  
                   Maximum memory used (kb):      713660.
                   Average memory used (kb):           0.
  
                          Minor page faults:      7750021
                          Major page faults:          261
                 Voluntary context switches:     17902280
