 vasp.5.4.4.18Apr17-6-g9f103f2a35 (build Jul 27 2025 00:00:01) complex          
  
 executed on             LinuxIFC date 2026.06.07  15:11:53
 running on  640 total cores
 distrk:  each k-point on  640 cores,    1 groups
 distr:  one band on NCORES_PER_BAND=  32 cores,   20 groups


--------------------------------------------------------------------------------------------------------


 INCAR:
 POTCAR:    PAW_PBE Ge_d 03Jul2007                
 POTCAR:    PAW_PBE Sn_d 06Sep2000                
 POTCAR:    PAW_PBE Ge_d 03Jul2007                
   VRHFIN =Ge: 3d4s4p                                                           
   LEXCH  = PE                                                                  
   EATOM  =  2596.2402 eV,  190.8183 Ry                                         
                                                                                
   TITEL  = PAW_PBE Ge_d 03Jul2007                                              
   LULTRA =        F    use ultrasoft PP ?                                      
   IUNSCR =        1    unscreen: 0-lin 1-nonlin 2-no                           
   RPACOR =    2.000    partial core radius                                     
   POMASS =   72.610; ZVAL   =   14.000    mass and valenz                      
   RCORE  =    2.300    outmost cutoff radius                                   
   RWIGS  =    2.300; RWIGS  =    1.217    wigner-seitz radius (au A)           
   ENMAX  =  310.294; ENMIN  =  232.720 eV                                      
   ICORE  =        3    local potential                                         
   LCOR   =        T    correct aug charges                                     
   LPAW   =        T    paw PP                                                  
   EAUG   =  531.356                                                            
   DEXC   =    0.000                                                            
   RMAX   =    2.342    core radius for proj-oper                               
   RAUG   =    1.300    factor for augmentation sphere                          
   RDEP   =    2.318    radius for radial grids                                 
   RDEPT  =    1.783    core radius for aug-charge                              
                                                                                
   Atomic configuration                                                         
    9 entries                                                                   
     n  l   j            E        occ.                                          
     1  0  0.50    -10959.8463   2.0000                                         
     2  0  0.50     -1371.6056   2.0000                                         
     2  1  1.50     -1198.4791   6.0000                                         
     3  0  0.50      -168.4733   2.0000                                         
     3  1  1.50      -115.6019   6.0000                                         
     3  2  2.50       -29.3106  10.0000                                         
     4  0  0.50       -11.7309   2.0000                                         
     4  1  0.50        -3.8952   2.0000                                         
     4  3  2.50        -4.0817   0.0000                                         
   Description                                                                  
     l       E           TYP  RCUT    TYP  RCUT                                 
     2    -29.3105938     23  2.200                                             
     2    -13.6058260     23  2.200                                             
     0    -11.7309493     23  2.300                                             
     0     -7.4578696     23  2.300                                             
     1     -3.8952261     23  2.300                                             
     1      6.1178114     23  2.300                                             
     3     -1.3605826     23  2.300                                             
  local pseudopotential read in
  partial core-charges read in
  partial kinetic energy density read in
  atomic valenz-charges read in
  non local Contribution for L=           2  read in
    real space projection operators read in
  non local Contribution for L=           2  read in
    real space projection operators read in
  non local Contribution for L=           0  read in
    real space projection operators read in
  non local Contribution for L=           0  read in
    real space projection operators read in
  non local Contribution for L=           1  read in
    real space projection operators read in
  non local Contribution for L=           1  read in
    real space projection operators read in
    PAW grid and wavefunctions read in
 
   number of l-projection  operators is LMAX  =           6
   number of lm-projection operators is LMMAX =          18
 
 POTCAR:    PAW_PBE Sn_d 06Sep2000                
   VRHFIN =Sn: s2p2                                                             
   LEXCH  = PE                                                                  
   EATOM  =  1893.1092 eV,  139.1396 Ry                                         
                                                                                
   TITEL  = PAW_PBE Sn_d 06Sep2000                                              
   LULTRA =        F    use ultrasoft PP ?                                      
   IUNSCR =        1    unscreen: 0-lin 1-nonlin 2-no                           
   RPACOR =    2.300    partial core radius                                     
   POMASS =  118.710; ZVAL   =   14.000    mass and valenz                      
   RCORE  =    2.500    outmost cutoff radius                                   
   RWIGS  =    2.960; RWIGS  =    1.566    wigner-seitz radius (au A)           
   ENMAX  =  241.083; ENMIN  =  180.812 eV                                      
   ICORE  =        3    local potential                                         
   LCOR   =        T    correct aug charges                                     
   LPAW   =        T    paw PP                                                  
   EAUG   =  439.825                                                            
   DEXC   =    0.000                                                            
   RMAX   =    2.560    core radius for proj-oper                               
   RAUG   =    1.300    factor for augmentation sphere                          
   RDEP   =    2.659    radius for radial grids                                 
   RDEPT  =    2.046    core radius for aug-charge                              
                                                                                
   Atomic configuration                                                         
   12 entries                                                                   
     n  l   j            E        occ.                                          
     1  0  0.50    -29007.2859   2.0000                                         
     2  0  0.50     -4378.8056   2.0000                                         
     2  1  1.50     -3930.4293   6.0000                                         
     3  0  0.50      -845.0264   2.0000                                         
     3  1  1.50      -698.5725   6.0000                                         
     3  2  2.50      -473.2839  10.0000                                         
     4  0  0.50      -133.9036   2.0000                                         
     4  1  1.50       -89.6752   6.0000                                         
     4  2  2.50       -25.8375  10.0000                                         
     5  0  0.50       -10.5484   2.0000                                         
     5  1  0.50        -3.6940   2.0000                                         
     4  3  2.50        -2.7416   0.0000                                         
   Description                                                                  
     l       E           TYP  RCUT    TYP  RCUT                                 
     2    -25.8374624     23  2.500                                             
     2     -5.4423304     23  2.500                                             
     0    -10.5483727     23  2.500                                             
     0     13.6058260     23  2.500                                             
     1     -3.6939829     23  2.500                                             
     1      1.9821976     23  2.500                                             
     3     -1.3605826      7  2.500                                             
  local pseudopotential read in
  partial core-charges read in
  partial kinetic energy density read in
  atomic valenz-charges read in
  non local Contribution for L=           2  read in
    real space projection operators read in
  non local Contribution for L=           2  read in
    real space projection operators read in
  non local Contribution for L=           0  read in
    real space projection operators read in
  non local Contribution for L=           0  read in
    real space projection operators read in
  non local Contribution for L=           1  read in
    real space projection operators read in
  non local Contribution for L=           1  read in
    real space projection operators read in
    PAW grid and wavefunctions read in
 
   number of l-projection  operators is LMAX  =           6
   number of lm-projection operators is LMMAX =          18
 

 ----------------------------------------------------------------------------- 
|                                                                             |
|  ADVICE TO THIS USER RUNNING 'VASP/VAMP'   (HEAR YOUR MASTER'S VOICE ...):  |
|                                                                             |
|      You have a (more or less) 'large supercell' and for larger cells       |
|      it might be more efficient to use real space projection opertators     |
|      So try LREAL= Auto  in the INCAR   file.                               |
|      Mind:          For very  accurate calculation you might also keep the  |
|      reciprocal projection scheme          (i.e. LREAL=.FALSE.)             |
|                                                                             |
 ----------------------------------------------------------------------------- 

  PAW_PBE Ge_d 03Jul2007                :
 energy of atom  1       EATOM=-2596.2402
 kinetic energy error for atom=    0.0173 (will be added to EATOM!!)
  PAW_PBE Sn_d 06Sep2000                :
 energy of atom  2       EATOM=-1893.1092
 kinetic energy error for atom=    0.0047 (will be added to EATOM!!)
 
 
 POSCAR: Ge22Sn194                               
  positions in direct lattice
  velocities in cartesian coordinates
 exchange correlation table for  LEXCH =        8
   RHO(1)=    0.500       N(1)  =     2000
   RHO(2)=  100.500       N(2)  =     4000
 


--------------------------------------------------------------------------------------------------------


 ion  position               nearest neighbor table
   1  0.925  0.079  0.169- 145 2.89 171 2.94 203 2.95 121 2.96 117 3.14 149 3.15 146 3.30
   2  0.000  0.860  0.414-   4 2.68 147 2.84  80 2.94  78 2.95 184 2.98 103 3.07
   3  0.761  0.211  0.585-  49 2.84 114 2.85 138 2.91  43 3.06 216 3.20 141 3.28 205 3.31
   4  0.064  0.871  0.547-   2 2.68 140 2.93  23 2.94  76 2.94 161 2.98 134 3.07
   5  0.515  0.762  0.993-   9 2.69 135 2.88  88 2.92 100 2.98  94 3.00 182 3.00 115 3.14
   6  0.610  0.525  0.670-  19 2.63  12 2.65  28 2.80 202 2.88 101 3.20
   7  0.219  0.436  0.507-  16 2.81  64 2.97  31 2.99  83 2.99 126 3.00 170 3.02 188 3.06
   8  0.053  0.478  0.170- 173 2.93 175 2.94 143 2.94 191 2.98  50 3.06  84 3.09 110 3.30
   9  0.415  0.854  0.930-   5 2.69  13 2.78  71 2.93  75 2.98  89 3.08 164 3.13 106 3.16
  10  0.956  0.214  0.785- 166 2.81  25 2.84 132 2.93  87 2.93 105 2.96 150 3.14
  11  0.119  0.336  0.892-  87 2.89 143 2.90 154 2.92  25 2.93 113 2.96 158 2.96
  12  0.485  0.498  0.738-   6 2.65 155 2.96  98 2.98 201 2.99 101 3.10  42 3.33
  13  0.373  0.957  0.034-   9 2.78 131 2.97  67 3.00 106 3.07 162 3.13 115 3.13  97 3.13  71 3.18

  14  0.887  0.921  0.673- 134 2.91 119 2.93 176 2.94 161 3.00 156 3.13 132 3.18 200 3.23 141 3.28

  15  0.488  0.269  0.096- 192 2.86 136 2.97  48 2.97  74 3.03 180 3.03  24 3.22 162 3.25
  16  0.171  0.347  0.391-   7 2.81 191 2.96  54 2.99 209 3.03  83 3.11 206 3.20  44 3.26
  17  0.661  0.469  0.195- 102 2.92 179 2.94  77 2.97 180 2.97 133 3.01  82 3.07 204 3.14
  18  0.842  0.884  0.230- 107 2.99 210 3.00 127 3.02 118 3.08 103 3.10  40 3.30
  19  0.602  0.540  0.527-   6 2.63  21 2.68 195 2.86 212 3.06  37 3.14
  20  0.761  0.728  0.985-  88 2.92 210 2.96 167 2.98 185 3.01  90 3.08  94 3.09
  21  0.714  0.453  0.484-  19 2.68  49 2.84  27 2.92 179 2.94 198 2.99  35 3.29 111 3.32
  22  0.075  0.754  0.756-  30 2.90  70 2.91 200 2.94 161 2.95  76 2.95  56 2.98  47 3.06
  23  0.113  0.024  0.556-   4 2.94  52 3.12 160 3.20 189 3.22 134 3.22 128 3.28  29 3.34 140 3.54
                           161 3.68
  24  0.317  0.249  0.057- 163 3.08  69 3.13  15 3.22 154 3.22  74 3.31 162 3.32 113 3.41 192 3.67
                            45 3.70 136 3.75
  25  0.104  0.249  0.758-  10 2.84  11 2.93  31 3.15 160 3.20 189 3.39 123 3.41  95 3.50
  26  0.520  0.010  0.216- 187 3.08  40 3.10  97 3.13 115 3.14 148 3.15  33 3.16 124 3.31
  27  0.852  0.458  0.567-  21 2.92  35 3.08  43 3.09 172 3.15 130 3.18  28 3.22  49 3.68  95 3.74

  28  0.745  0.459  0.707-   6 2.80  49 3.06  55 3.19 166 3.19  27 3.22 172 3.23  58 3.25
  29  0.981  0.144  0.609-  43 3.11 132 3.12 216 3.12 134 3.17 189 3.20  23 3.34 169 3.45 160 3.56

  30  0.215  0.774  0.684-  22 2.90 197 3.10  75 3.17 215 3.19 140 3.24  62 3.26 108 3.29  47 3.34

  31  0.173  0.352  0.639-   7 2.99 189 3.06  25 3.15  95 3.15  81 3.26 188 3.30 209 3.31 177 3.44
                           158 3.65
  32  0.044  0.555  0.923- 116 2.99 143 3.05 185 3.16  70 3.19 158 3.20  57 3.22  41 3.60  51 3.74

  33  0.492  0.858  0.292-  26 3.16 153 3.24  67 3.24  86 3.27 182 3.31  79 3.34  39 3.38  65 3.45
                            46 3.47
  34  0.398  0.457  0.917-  41 3.12 192 3.16  74 3.24  98 3.25 135 3.30 186 3.40 154 3.41  42 3.50
                           155 3.57
  35  0.869  0.492  0.403-  27 3.08  77 3.12 111 3.12  84 3.12 214 3.16 152 3.28  21 3.29 151 3.31

  36  0.467  0.225  0.651- 138 3.12 101 3.17 155 3.18 177 3.23 181 3.24 196 3.26  73 3.29  81 3.37
                           129 3.50
  37  0.491  0.430  0.456- 101 3.06  83 3.12 190 3.14  19 3.14 179 3.19  60 3.26 212 3.40 170 3.47

  38  0.948  0.703  0.116- 173 3.10 210 3.12 103 3.16 175 3.17 185 3.19 142 3.30 118 3.35 151 3.64

  39  0.386  0.708  0.306- 159 3.20 112 3.22 183 3.24 104 3.28 182 3.30  33 3.38  72 3.39  79 3.51

  40  0.680  0.964  0.255- 127 3.04  26 3.10 153 3.13  65 3.19 121 3.25  18 3.30  99 3.42 211 3.46

  41  0.231  0.491  0.941- 139 3.08  34 3.12 163 3.17 158 3.19 143 3.32 154 3.36  32 3.60 186 3.65
                           194 3.70  47 3.73
  42  0.373  0.620  0.817-  75 3.09 201 3.15 186 3.20 139 3.26 135 3.28 215 3.31  12 3.33  47 3.37
                           100 3.43  34 3.50
  43  0.904  0.297  0.587-   3 3.06  27 3.09  29 3.11 166 3.16  95 3.30 152 3.31 209 3.34 216 3.44

  44  0.229  0.240  0.259-  54 3.17  96 3.19  63 3.22  16 3.26  45 3.27 206 3.28  69 3.32 191 3.52
                           136 3.58 117 3.59
  45  0.126  0.284  0.118- 171 3.17  69 3.19 143 3.20 163 3.21  44 3.27 206 3.28  50 3.40 113 3.42
                            24 3.70 117 3.75
  46  0.645  0.750  0.339- 153 3.07 107 3.16 168 3.18 183 3.20  86 3.20 111 3.28 204 3.44  33 3.47

  47  0.188  0.637  0.803-  22 3.06 116 3.24 158 3.27  30 3.34  42 3.37 215 3.45  70 3.45  75 3.47
                           188 3.68 139 3.72  41 3.73 186 3.74
  48  0.647  0.235  0.112-  15 2.97 124 3.15 187 3.15  66 3.25 133 3.30  53 3.30 207 3.35 180 3.42
                            68 3.50 121 3.58
  49  0.686  0.349  0.595-  21 2.84   3 2.84 101 3.05  28 3.06 114 3.63  27 3.68 138 3.70
  50  0.952  0.347  0.153-   8 3.06 171 3.21 206 3.26  51 3.30  68 3.35  45 3.40  77 3.54 175 3.60
                           143 3.71
  51  0.898  0.440  0.007-  87 3.18 175 3.25  57 3.25  50 3.30 133 3.30  91 3.37 185 3.38  85 3.38
                           143 3.39  55 3.54  32 3.74
  52  0.104  0.057  0.389- 169 3.02 184 3.07  23 3.12  80 3.14  63 3.17 117 3.19 128 3.33  54 3.61

  53  0.818  0.213  0.053- 171 3.10  85 3.14 121 3.18  68 3.19 146 3.28  48 3.30 133 3.35  66 3.58
                           150 3.59
  54  0.235  0.199  0.428-  16 2.99  44 3.17 128 3.19 144 3.21 177 3.22 189 3.29 169 3.37  63 3.44
                            52 3.61
  55  0.759  0.489  0.879-  91 3.14 167 3.16  28 3.19  85 3.23 178 3.23  57 3.24  58 3.37  51 3.54
                            98 3.55
  56  0.144  0.840  0.876-  22 2.98 116 3.24 165 3.30  75 3.31  59 3.33 197 3.35  71 3.41 157 3.42
                           142 3.64 161 3.75
  57  0.928  0.459  0.832- 166 3.09  32 3.22  55 3.24  51 3.25  95 3.27  87 3.27  70 3.40 178 3.50

  58  0.650  0.355  0.814- 155 3.15 114 3.20 207 3.21  85 3.25  28 3.25  98 3.37  55 3.37 196 3.41
                            66 3.69
  59  0.101  0.841  0.054- 193 3.13 142 3.24 131 3.25 116 3.28  56 3.33 149 3.37  71 3.39 118 3.43
                            61 3.65
  60  0.457  0.485  0.289- 180 3.15 104 3.17  96 3.19  93 3.23 179 3.25  37 3.26 183 3.34  83 3.46
                           204 3.63
  61  0.184  0.935  0.209-  63 3.09  80 3.14 193 3.15 145 3.16 131 3.17  67 3.19  59 3.65 117 3.69

  62  0.181  0.690  0.530-  64 3.12  76 3.15  78 3.23  72 3.24  30 3.26 140 3.27 215 3.30 188 3.44
                           159 3.47 126 3.60
  63  0.249  0.067  0.293-  61 3.09  97 3.14  52 3.17  44 3.22 128 3.26 148 3.27 117 3.34  54 3.44
                            69 3.49
  64  0.288  0.575  0.458-   7 2.97 104 3.05 212 3.11  62 3.12 159 3.41 170 3.51  83 3.57  72 3.57
                           215 3.63 126 3.70
  65  0.602  0.954  0.411- 168 3.08 109 3.17  40 3.19 120 3.24 205 3.35 208 3.41  33 3.45 127 3.54
                            86 3.54
  66  0.659  0.195  0.938- 196 3.11 122 3.13 207 3.24  48 3.25 150 3.31  85 3.33 124 3.40  53 3.58
                            58 3.69
  67  0.353  0.895  0.185-  13 3.00 112 3.16  61 3.19  97 3.19  33 3.24  79 3.29 182 3.35
  68  0.803  0.266  0.219- 203 3.08  77 3.12 211 3.18  53 3.19  50 3.35 198 3.40 133 3.42  48 3.50
                           121 3.69
  69  0.211  0.129  0.116- 131 3.03 117 3.05  97 3.12  24 3.13  45 3.19 113 3.20  44 3.32  63 3.49

  70  0.006  0.611  0.761-  22 2.91 130 3.15  32 3.19 178 3.20  57 3.40  47 3.45 158 3.52  76 3.57
                           200 3.59
  71  0.279  0.815  0.005-   9 2.93 112 3.15 139 3.18  13 3.18 131 3.29  75 3.29  59 3.39  56 3.41
                           116 3.66
  72  0.208  0.724  0.358- 110 3.15 193 3.15  80 3.18  62 3.24  78 3.25  39 3.39 159 3.41  64 3.57
                            79 3.63 104 3.66
  73  0.421  0.114  0.517- 144 3.09 109 3.20 120 3.23 129 3.24 148 3.26  36 3.29 128 3.31 177 3.50
                           181 3.66 213 3.67 138 3.76
  74  0.446  0.286  0.936-  15 3.03 155 3.09 154 3.17  34 3.24 207 3.24 174 3.28  24 3.31 162 3.51
                           192 3.56
  75  0.310  0.779  0.830-   9 2.98  42 3.09 164 3.16  30 3.17  71 3.29  56 3.31  47 3.47 197 3.61
                           139 3.67
  76  0.028  0.725  0.604-   4 2.94  22 2.95 176 3.08  62 3.15 130 3.16  78 3.40  70 3.57
  77  0.809  0.434  0.254-  17 2.97  35 3.12  68 3.12 175 3.18 198 3.36  82 3.40 133 3.48  50 3.54

  78  0.042  0.703  0.419-   2 2.95  62 3.23  72 3.25 151 3.25 110 3.26 214 3.28 126 3.32  76 3.40
                           103 3.43
  79  0.325  0.883  0.363-  80 3.15 159 3.21  67 3.29  33 3.34 120 3.34 128 3.42 148 3.44  39 3.51
                           140 3.60  72 3.63
  80  0.152  0.891  0.372-   2 2.94  61 3.14  52 3.14  79 3.15  72 3.18 140 3.21
  81  0.319  0.305  0.732- 186 3.07 154 3.13 155 3.16  31 3.26 177 3.28 123 3.30  36 3.37 129 3.52

  82  0.753  0.607  0.209- 111 3.04 210 3.06  17 3.07 175 3.13 204 3.15  91 3.25  77 3.40 107 3.56
                            88 3.62 151 3.74
  83  0.334  0.393  0.398-   7 2.99  16 3.11  96 3.12  37 3.12 144 3.17  60 3.46 177 3.52  64 3.57
                           104 3.58 170 3.75
  84  0.017  0.441  0.331-   8 3.09  35 3.12 126 3.15 206 3.18 191 3.41 110 3.42 152 3.43 209 3.49
                           151 3.67
  85  0.790  0.318  0.920-  53 3.14  87 3.21  55 3.23  58 3.25 133 3.27 150 3.27 166 3.32  66 3.33
                            51 3.38 207 3.70
  86  0.517  0.786  0.455- 159 3.11 120 3.12 125 3.18  46 3.20 183 3.21  33 3.27 168 3.31  65 3.54

  87  0.966  0.305  0.918-  11 2.89  10 2.93  51 3.18  85 3.21 105 3.27  57 3.27 171 3.50 143 3.61
                           166 3.66
  88  0.633  0.681  0.067-  20 2.92   5 2.92 204 3.12  91 3.20 102 3.23 153 3.27 210 3.43 167 3.58
                            82 3.62 182 3.64 135 3.75
  89  0.521  0.982  0.913-   9 3.08 115 3.20 122 3.28  92 3.29 174 3.29  94 3.34 162 3.47 124 3.57
                           199 3.59 164 3.67 106 3.69
  90  0.827  0.870  0.924-  20 3.08 119 3.14 137 3.22 142 3.22 118 3.28 157 3.32 200 3.35  94 3.37
                            99 3.43 146 3.51 122 3.70
  91  0.750  0.549  0.040-  55 3.14 133 3.14 185 3.17  88 3.20 102 3.22  82 3.25  51 3.37 175 3.48
                           167 3.66
  92  0.584  0.875  0.781- 164 3.09 199 3.10 100 3.14 125 3.15 137 3.24  94 3.25  89 3.29 156 3.53

  93  0.429  0.576  0.140- 192 3.12 194 3.12 135 3.19 204 3.22 182 3.22  60 3.23 102 3.25 104 3.72

  94  0.645  0.848  0.946-   5 3.00  20 3.09  92 3.25  99 3.28 115 3.30  89 3.34 137 3.36  90 3.37
                           122 3.39 100 3.74
  95  0.013  0.403  0.683-  31 3.15 130 3.23 158 3.25  57 3.27  43 3.30 209 3.40 166 3.40  25 3.50
                            27 3.74 188 3.74
  96  0.352  0.359  0.231- 136 3.01  83 3.12  44 3.19  60 3.19 192 3.21 163 3.27 191 3.28 180 3.64

  97  0.364  0.068  0.166- 136 2.97 162 3.05  69 3.12  26 3.13  13 3.13  63 3.14  67 3.19 148 3.54

  98  0.564  0.507  0.880-  12 2.98 135 3.17 167 3.19  34 3.25 207 3.34 102 3.35  58 3.37  55 3.55

  99  0.737  0.921  0.082- 121 3.18  94 3.28 210 3.30 118 3.36 153 3.36 122 3.40  40 3.42  90 3.43
                           146 3.45 115 3.69 124 3.76
 100  0.528  0.722  0.835-   5 2.98 167 3.10  92 3.14 201 3.19 135 3.41  42 3.43 202 3.46  94 3.74

 101  0.522  0.385  0.615-  49 3.05  37 3.06  12 3.10  36 3.17   6 3.20 170 3.23 155 3.23
 102  0.579  0.512  0.063-  17 2.92 207 3.18  91 3.22  88 3.23 135 3.24  93 3.25  98 3.35 192 3.36
                           204 3.44
 103  0.981  0.789  0.263- 193 3.07   2 3.07  18 3.10 145 3.16  38 3.16 151 3.18 107 3.26  78 3.43

 104  0.296  0.554  0.292-  64 3.05 194 3.12 191 3.14  60 3.17  39 3.28 110 3.39  83 3.58  72 3.66
                            93 3.72
 105  0.013  0.130  0.913-  10 2.96 171 3.17 113 3.18 165 3.22  87 3.27 149 3.28 132 3.34 157 3.40
                           150 3.62 146 3.69
 106  0.322  0.992  0.877-  13 3.07 174 3.11 165 3.13 164 3.15   9 3.16 197 3.27 123 3.39 131 3.66
                            89 3.69
 107  0.817  0.752  0.323-  18 2.99 147 3.12  46 3.16 151 3.16 103 3.26 210 3.33 111 3.36 214 3.45
                            82 3.56 127 3.67
 108  0.388  0.791  0.637- 201 3.07 164 3.08 159 3.13 125 3.23  30 3.29 213 3.34 215 3.51
 109  0.566  0.125  0.420- 187 3.11 138 3.12 190 3.14 205 3.16  65 3.17  73 3.20 148 3.31 144 3.52

 110  0.113  0.596  0.293-  72 3.15 173 3.21  78 3.26 151 3.26 126 3.30   8 3.30 191 3.37 104 3.39
                            84 3.42 193 3.57
 111  0.734  0.596  0.374-  82 3.04 195 3.05 179 3.11  35 3.12  46 3.28  21 3.32 214 3.35 107 3.36

 112  0.294  0.735  0.157- 193 3.04 182 3.10 194 3.12  71 3.15  67 3.16  39 3.22 139 3.68
 113  0.168  0.195  0.958-  11 2.96 123 3.16 105 3.18  69 3.20 154 3.22 165 3.41  24 3.41  45 3.42

 114  0.731  0.216  0.738-   3 2.85 150 3.09 196 3.11 166 3.12  58 3.20  49 3.63 141 3.74 138 3.76

 115  0.535  0.913  0.074-  13 3.13  26 3.14   5 3.14 153 3.15 124 3.20  89 3.20  94 3.30 182 3.56
                            99 3.69
 116  0.132  0.687  0.964-  32 2.99 139 3.08 173 3.13  56 3.24 142 3.24  47 3.24  59 3.28  71 3.66

 117  0.084  0.113  0.224-  69 3.05   1 3.14  52 3.19 206 3.19 145 3.24  63 3.34 203 3.50 171 3.57
                            44 3.59  61 3.69  45 3.75
 118  0.918  0.881  0.079-  18 3.08 142 3.22  90 3.28 145 3.28 149 3.30  38 3.35  99 3.36 146 3.40
                            59 3.43 210 3.52
 119  0.812  0.988  0.799-  14 2.93 132 3.10  90 3.14 150 3.18 199 3.22 141 3.29 122 3.32 157 3.70

 120  0.444  0.939  0.490-  86 3.12 213 3.17 148 3.22  73 3.23  65 3.24  79 3.34 208 3.34 128 3.60

 121  0.764  0.079  0.151-   1 2.96 211 3.14  99 3.18  53 3.18 146 3.23  40 3.25 124 3.39  48 3.58
                            68 3.69
 122  0.694  0.026  0.933-  66 3.13 124 3.13 199 3.15 146 3.27  89 3.28 119 3.32  94 3.39  99 3.40
                           150 3.45  90 3.70
 123  0.258  0.157  0.815- 174 3.15 113 3.16 129 3.20 160 3.27 154 3.30  81 3.30 106 3.39  25 3.41
                           165 3.46
 124  0.598  0.076  0.067- 162 3.08 122 3.13  48 3.15 115 3.20  26 3.31 121 3.39  66 3.40  89 3.57
                           187 3.76  99 3.76
 125  0.563  0.814  0.621-  92 3.15 202 3.17  86 3.18 156 3.19 108 3.23 208 3.33 168 3.36 201 3.55

 126  0.091  0.530  0.460-   7 3.00 130 3.14  84 3.15 209 3.20 110 3.30  78 3.32 188 3.39  62 3.60
                            64 3.70
 127  0.793  0.945  0.377-  18 3.02  40 3.04 184 3.04 147 3.06 205 3.14 168 3.52  65 3.54 107 3.67
                           211 3.71
 128  0.268  0.031  0.467-  54 3.19  63 3.26 213 3.27  23 3.28  73 3.31  52 3.33 140 3.37  79 3.42
                           148 3.47 120 3.60
 129  0.300  0.133  0.646- 213 3.09 189 3.19 177 3.20 123 3.20  73 3.24 181 3.47  36 3.50  81 3.52
                           160 3.61
 130  0.991  0.557  0.597- 126 3.14  70 3.15  76 3.16 188 3.18  27 3.18  95 3.23 214 3.49 172 3.51

 131  0.211  0.979  0.044-  13 2.97  69 3.03 165 3.08  61 3.17  59 3.25  71 3.29 149 3.29 106 3.66

 132  0.960  0.056  0.754-  10 2.93 119 3.10  29 3.12 160 3.14  14 3.18 161 3.25 157 3.27 105 3.34
                           150 3.66
 133  0.746  0.382  0.082-  17 3.01  91 3.14 207 3.23  85 3.27  48 3.30  51 3.30  53 3.35  68 3.42
                            77 3.48
 134  0.941  0.989  0.540-  14 2.91   4 3.07  29 3.17 184 3.20  23 3.22 216 3.36 147 3.60
 135  0.463  0.615  0.973-   5 2.88 139 3.09  98 3.17  93 3.19 102 3.24  42 3.28  34 3.30 100 3.41
                            88 3.75
 136  0.421  0.207  0.230-  15 2.97  97 2.97  96 3.01 144 3.07 187 3.09  44 3.58 180 3.61 148 3.67
                            24 3.75
 137  0.738  0.785  0.799- 156 3.13  90 3.22 167 3.23 202 3.23  92 3.24 200 3.33 178 3.34  94 3.36

 138  0.610  0.162  0.580-   3 2.91 109 3.12  36 3.12 208 3.14 205 3.28 141 3.54  49 3.70 114 3.76
                            73 3.76
 139  0.295  0.643  0.977- 116 3.08  41 3.08 135 3.09 194 3.10  71 3.18  42 3.26  75 3.67 112 3.68
                            47 3.72
 140  0.224  0.864  0.531-   4 2.93  80 3.21 213 3.24  30 3.24  62 3.27 159 3.27 128 3.37  23 3.54
                            79 3.60
 141  0.753  0.039  0.636- 205 3.12 199 3.14 156 3.14 208 3.27  14 3.28   3 3.28 119 3.29 138 3.54
                           114 3.74
 142  0.974  0.772  0.951- 200 3.16 185 3.16 118 3.22  90 3.22  59 3.24 116 3.24  38 3.30 157 3.36
                            56 3.64
 143  0.083  0.425  0.021-  11 2.90   8 2.94  32 3.05  45 3.20 163 3.30  41 3.32  51 3.39  87 3.61
                            50 3.71
 144  0.404  0.231  0.396- 136 3.07  73 3.09  83 3.17  54 3.21 190 3.22 177 3.32 148 3.48 109 3.52

 145  0.011  0.952  0.216-   1 2.89 184 3.14 103 3.16  61 3.16 117 3.24 149 3.28 118 3.28
 146  0.858  0.043  0.005- 121 3.23 150 3.24 122 3.27  53 3.28   1 3.30 149 3.32 118 3.40  99 3.45
                            90 3.51 157 3.56 105 3.69
 147  0.861  0.823  0.472-   2 2.84 176 3.04 127 3.06 107 3.12 214 3.13 168 3.14 134 3.60
 148  0.418  0.046  0.351-  26 3.15 120 3.22  73 3.26  63 3.27 109 3.31  79 3.44 128 3.47 144 3.48
                            97 3.54 136 3.67
 149  0.033  0.015  0.049-   1 3.15 157 3.21 105 3.28 145 3.28 131 3.29 118 3.30 146 3.32 171 3.36
                            59 3.37 165 3.62
 150  0.820  0.148  0.867- 114 3.09  10 3.14 119 3.18 146 3.24  85 3.27  66 3.31 122 3.45  53 3.59
                           105 3.62 132 3.66
 151  0.936  0.625  0.300- 175 3.13 107 3.16 103 3.18  78 3.25 110 3.26  35 3.31 214 3.34  38 3.64
                            84 3.67  82 3.74
 152  0.903  0.315  0.407- 198 3.12 203 3.24 216 3.24  35 3.28  43 3.31 209 3.36 169 3.39  84 3.43
                           206 3.62
 153  0.628  0.816  0.185-  46 3.07  40 3.13 115 3.15 210 3.16  33 3.24  88 3.27 182 3.33  99 3.36
                           204 3.72
 154  0.278  0.317  0.898-  11 2.92  81 3.13  74 3.17 113 3.22  24 3.22 123 3.30  41 3.36  34 3.41

 155  0.481  0.341  0.781-  12 2.96  74 3.09  58 3.15  81 3.16  36 3.18 196 3.22 101 3.23  34 3.57

 156  0.726  0.869  0.650- 168 3.11  14 3.13 137 3.13 141 3.14 176 3.15 125 3.19 208 3.51  92 3.53

 157  0.988  0.946  0.893- 149 3.21 132 3.27 165 3.31  90 3.32 142 3.36 105 3.40  56 3.42 146 3.56
                           161 3.66 200 3.69 119 3.70
 158  0.132  0.467  0.798-  11 2.96  41 3.19  32 3.20 186 3.23  95 3.25  47 3.27 188 3.30  70 3.52
                            31 3.65
 159  0.352  0.749  0.474-  86 3.11 108 3.13  39 3.20  79 3.21 140 3.27 212 3.29  72 3.41  64 3.41
                            62 3.47
 160  0.127  0.078  0.723- 197 3.11 132 3.14  25 3.20  23 3.20 165 3.26 123 3.27 189 3.31 161 3.48
                            29 3.56 129 3.61
 161  0.048  0.906  0.706-  22 2.95   4 2.98  14 3.00 132 3.25 197 3.28 160 3.48 200 3.52 157 3.66
                            23 3.68  56 3.75
 162  0.438  0.114  0.024-  97 3.05 174 3.06 124 3.08  13 3.13  15 3.25  24 3.32  89 3.47  74 3.51

 163  0.250  0.403  0.089-  24 3.08 194 3.12  41 3.17  45 3.21 192 3.22 191 3.22  96 3.27 143 3.30

 164  0.415  0.898  0.765- 108 3.08  92 3.09   9 3.13 106 3.15  75 3.16 181 3.23 213 3.23 197 3.60
                            89 3.67
 165  0.153  0.021  0.891- 131 3.08 106 3.13 105 3.22 160 3.26  56 3.30 157 3.31 197 3.39 113 3.41
                           123 3.46 149 3.62
 166  0.857  0.329  0.751-  10 2.81  57 3.09 114 3.12  43 3.16  28 3.19  85 3.32  95 3.40  87 3.66

 167  0.673  0.642  0.878-  20 2.98 100 3.10  55 3.16  98 3.19 137 3.23 178 3.26 202 3.47  88 3.58
                            91 3.66
 168  0.689  0.829  0.488-  65 3.08 195 3.08 156 3.11 147 3.14  46 3.18  86 3.31 125 3.36 127 3.52

 169  0.050  0.205  0.444-  52 3.02 189 3.11 209 3.13 206 3.23 216 3.31  54 3.37 152 3.39  29 3.45
                           203 3.60
 170  0.360  0.456  0.592-   7 3.02 186 3.16 101 3.23 212 3.27 177 3.35 215 3.37  37 3.47  64 3.51
                            83 3.75
 171  0.986  0.193  0.073-   1 2.94  53 3.10 105 3.17  45 3.17  50 3.21 149 3.36  87 3.50 117 3.57

 172  0.809  0.609  0.641- 176 3.09 178 3.11 195 3.13  27 3.15  28 3.23 202 3.33 214 3.45 130 3.51

 173  0.100  0.623  0.120-   8 2.93 194 3.03  38 3.10 116 3.13 193 3.17 110 3.21
 174  0.424  0.126  0.857- 162 3.06 106 3.11 123 3.15 181 3.15 196 3.17  74 3.28  89 3.29
 175  0.903  0.540  0.154-   8 2.94  82 3.13 151 3.13  38 3.17  77 3.18  51 3.25  91 3.48  50 3.60
                           185 3.66
 176  0.866  0.768  0.628-  14 2.94 147 3.04  76 3.08 200 3.08 172 3.09 156 3.15 214 3.56
 177  0.327  0.279  0.554- 129 3.20  54 3.22  36 3.23  81 3.28 144 3.32 170 3.35  31 3.44  73 3.50
                            83 3.52 189 3.70
 178  0.838  0.629  0.808- 172 3.11 185 3.13  70 3.20  55 3.23 167 3.26 200 3.32 137 3.34  57 3.50

 179  0.624  0.470  0.351-  17 2.94  21 2.94 111 3.11  37 3.19  60 3.25 198 3.31 183 3.34 180 3.41
                           190 3.44 204 3.75
 180  0.552  0.353  0.225-  17 2.97  15 3.03 190 3.08  60 3.15 179 3.41  48 3.42 187 3.56 136 3.61
                           192 3.62  96 3.64
 181  0.466  0.056  0.704- 174 3.15 208 3.16 164 3.23  36 3.24 213 3.28 199 3.44 129 3.47 196 3.49
                            73 3.66
 182  0.463  0.749  0.149-   5 3.00 112 3.10  93 3.22  39 3.30  33 3.31 153 3.33  67 3.35 204 3.37
                           115 3.56  88 3.64
 183  0.529  0.627  0.379- 204 3.09 212 3.14  46 3.20  86 3.21  39 3.24  60 3.34 179 3.34
 184  0.946  0.008  0.366-   2 2.98 127 3.04  52 3.07 145 3.14 134 3.20 203 3.21 216 3.41
 185  0.890  0.622  0.972-  20 3.01 178 3.13  32 3.16 142 3.16  91 3.17  38 3.19  51 3.38 175 3.66

 186  0.305  0.472  0.756-  81 3.07 170 3.16  42 3.20 158 3.23 215 3.35  34 3.40 188 3.61  41 3.65
                            47 3.74
 187  0.584  0.161  0.254-  26 3.08 136 3.09 211 3.10 109 3.11  48 3.15 190 3.34 180 3.56 124 3.76

 188  0.161  0.533  0.632- 215 3.05   7 3.06 130 3.18 158 3.30  31 3.30 126 3.39  62 3.44 186 3.61
                            47 3.68  95 3.74
 189  0.147  0.195  0.585-  31 3.06 169 3.11 129 3.19  29 3.20  23 3.22  54 3.29 160 3.31  25 3.39
                           177 3.70
 190  0.568  0.293  0.382- 180 3.08 198 3.09 109 3.14  37 3.14 144 3.22 187 3.34 179 3.44
 191  0.186  0.429  0.252-  16 2.96   8 2.98 104 3.14 163 3.22  96 3.28 110 3.37  84 3.41  44 3.52
                           194 3.72
 192  0.426  0.414  0.082-  15 2.86  93 3.12  34 3.16  96 3.21 163 3.22 102 3.36  74 3.56 180 3.62
                            24 3.67
 193  0.138  0.769  0.205- 112 3.04 103 3.07  59 3.13  61 3.15  72 3.15 173 3.17 110 3.57
 194  0.259  0.570  0.126- 173 3.03 139 3.10 104 3.12  93 3.12 163 3.12 112 3.12  41 3.70 191 3.72

 195  0.696  0.663  0.522-  19 2.86 111 3.05 168 3.08 172 3.13 202 3.25 214 3.46
 196  0.572  0.188  0.792- 199 3.11  66 3.11 114 3.11 174 3.17 155 3.22  36 3.26  58 3.41 181 3.49

 197  0.222  0.935  0.741- 213 3.05  30 3.10 160 3.11 106 3.27 161 3.28  56 3.35 165 3.39 164 3.60
                            75 3.61
 198  0.734  0.326  0.382-  21 2.99 190 3.09 152 3.12 179 3.31  77 3.36  68 3.40 211 3.72
 199  0.643  0.033  0.768-  92 3.10 196 3.11 141 3.14 122 3.15 119 3.22 208 3.43 181 3.44  89 3.59

 200  0.920  0.789  0.787-  22 2.94 176 3.08 142 3.16  14 3.23 178 3.32 137 3.33  90 3.35 161 3.52
                            70 3.59 157 3.69
 201  0.475  0.653  0.683-  12 2.99 108 3.07 212 3.12  42 3.15 202 3.16 100 3.19 215 3.31 125 3.55

 202  0.646  0.677  0.693-   6 2.88 201 3.16 125 3.17 137 3.23 195 3.25 172 3.33 100 3.46 167 3.47

 203  0.918  0.171  0.302-   1 2.95  68 3.08 216 3.16 206 3.19 184 3.21 152 3.24 211 3.29 117 3.50
                           169 3.60
 204  0.581  0.621  0.218- 183 3.09  88 3.12  17 3.14  82 3.15  93 3.22 182 3.37  46 3.44 102 3.44
                            60 3.63 153 3.72 179 3.75
 205  0.725  0.075  0.471- 211 3.09 141 3.12 127 3.14 109 3.16 216 3.17 138 3.28   3 3.31  65 3.35
                           208 3.73
 206  0.054  0.276  0.283-  84 3.18 203 3.19 117 3.19  16 3.20 169 3.23  50 3.26  44 3.28  45 3.28
                           152 3.62
 207  0.601  0.358  0.983- 102 3.18  58 3.21 133 3.23  66 3.24  74 3.24  98 3.34  48 3.35  85 3.70

 208  0.585  0.993  0.594- 138 3.14 181 3.16 141 3.27 125 3.33 120 3.34  65 3.41 199 3.43 156 3.51
                           205 3.73
 209  0.050  0.366  0.504-  16 3.03 169 3.13 126 3.20  31 3.31  43 3.34 152 3.36  95 3.40  84 3.49

 210  0.787  0.757  0.142-  20 2.96  18 3.00  82 3.06  38 3.12 153 3.16  99 3.30 107 3.33  88 3.43
                           118 3.52
 211  0.742  0.133  0.313- 205 3.09 187 3.10 121 3.14  68 3.18 203 3.29  40 3.46 127 3.71 198 3.72

 212  0.443  0.599  0.524-  19 3.06  64 3.11 201 3.12 183 3.14 170 3.27 159 3.29  37 3.40 215 3.50

 213  0.334  0.967  0.622- 197 3.05 129 3.09 120 3.17 164 3.23 140 3.24 128 3.27 181 3.28 108 3.34
                            73 3.67
 214  0.879  0.652  0.472- 147 3.13  35 3.16  78 3.28 151 3.34 111 3.35 172 3.45 107 3.45 195 3.46
                           130 3.49 176 3.56
 215  0.300  0.622  0.651- 188 3.05  30 3.19  62 3.30 201 3.31  42 3.31 186 3.35 170 3.37  47 3.45
                           212 3.50 108 3.51  64 3.63
 216  0.880  0.150  0.470-  29 3.12 203 3.16 205 3.17   3 3.20 152 3.24 169 3.31 134 3.36 184 3.41
                            43 3.44
 

IMPORTANT INFORMATION: All symmetrisations will be switched off!
NOSYMM: (Re-)initialisation of all symmetry stuff for point group C_1.

 
 
 KPOINTS: k-points                                

Automatic generation of k-mesh.
Space group operators:
 irot       det(A)        alpha          n_x          n_y          n_z        tau_x        tau_y        tau_z
    1     1.000000     0.000000     1.000000     0.000000     0.000000     0.000000     0.000000     0.000000
 
 Subroutine IBZKPT returns following result:
 ===========================================
 
 Found      1 irreducible k-points:
 
 Following reciprocal coordinates:
            Coordinates               Weight
  0.000000  0.000000  0.000000      1.000000
 
 Following cartesian coordinates:
            Coordinates               Weight
  0.000000  0.000000  0.000000      1.000000
 
 
 Subroutine IBZKPT_HF returns following result:
 ==============================================
 
 Found      1 k-points in 1st BZ
 the following      1 k-points will be used (e.g. in the exchange kernel)
 Following reciprocal coordinates:   # in IRBZ
  0.000000  0.000000  0.000000    1.00000000   1 t-inv F


--------------------------------------------------------------------------------------------------------




 Dimension of arrays:
   k-points           NKPTS =      1   k-points in BZ     NKDIM =      1   number of bands    NBANDS=   1820
   number of dos      NEDOS =   3001   number of ions     NIONS =    216
   non local maximal  LDIM  =      6   non local SUM 2l+1 LMDIM =     18
   total plane-waves  NPLWV = ******
   max r-space proj   IRMAX =      1   max aug-charges    IRDMAX=  12979
   dimension x,y,z NGX =   120 NGY =  120 NGZ =  120
   dimension x,y,z NGXF=   240 NGYF=  240 NGZF=  240
   support grid    NGXF=   240 NGYF=  240 NGZF=  240
   ions per type =              22 194
   NGX,Y,Z   is equivalent  to a cutoff of  10.95, 10.97, 10.94 a.u.
   NGXF,Y,Z  is equivalent  to a cutoff of  21.91, 21.94, 21.88 a.u.

 SYSTEM =  GeSn_216                                
 POSCAR =  Ge22Sn194                               

 Startparameter for this run:
   NWRITE =      2    write-flag & timer
   PREC   = accura    normal or accurate (medium, high low for compatibility)
   ISTART =      1    job   : 0-new  1-cont  2-samecut
   ICHARG =      1    charge: 1-file 2-atom 10-const
   ISPIN  =      1    spin polarized calculation?
   LNONCOLLINEAR =      F non collinear calculations
   LSORBIT =      F    spin-orbit coupling
   INIWAV =      1    electr: 0-lowe 1-rand  2-diag
   LASPH  =      T    aspherical Exc in radial PAW
   METAGGA=      F    non-selfconsistent MetaGGA calc.

 Electronic Relaxation 1
   ENCUT  =  400.0 eV  29.40 Ry    5.42 a.u.  29.70 29.66 29.74*2*pi/ulx,y,z
   ENINI  =  400.0     initial cutoff
   ENAUG  =  531.4 eV  augmentation charge cutoff
   NELM   =    300;   NELMIN=  5; NELMDL=  0     # of ELM steps 
   EDIFF  = 0.1E-05   stopping-criterion for ELM
   LREAL  =      F    real-space projection
   NLSPLINE    = F    spline interpolate recip. space projectors
   LCOMPAT=      F    compatible to vasp.4.4
   GGA_COMPAT  = T    GGA compatible to vasp.4.4-vasp.4.6
   LMAXPAW     = -100 max onsite density
   LMAXMIX     =    2 max onsite mixed and CHGCAR
   VOSKOWN=      0    Vosko Wilk Nusair interpolation
   ROPT   =    0.00000   0.00000
 Ionic relaxation
   EDIFFG = -.3E-01   stopping-criterion for IOM
   NSW    =      0    number of steps for IOM
   NBLOCK =      1;   KBLOCK =      1    inner block; outer block 
   IBRION =     -1    ionic relax: 0-MD 1-quasi-New 2-CG
   NFREE  =      0    steps in history (QN), initial steepest desc. (CG)
   ISIF   =      0    stress and relaxation
   IWAVPR =     10    prediction:  0-non 1-charg 2-wave 3-comb
   ISYM   =      0    0-nonsym 1-usesym 2-fastsym
   LCORR  =      T    Harris-Foulkes like correction to forces

   POTIM  = 0.5000    time-step for ionic-motion
   TEIN   =    0.0    initial temperature
   TEBEG  =    0.0;   TEEND  =   0.0 temperature during run
   SMASS  =  -3.00    Nose mass-parameter (am)
   estimated Nose-frequenzy (Omega)   =  0.10E-29 period in steps =****** mass=  -0.758E-26a.u.
   SCALEE = 1.0000    scale energy and forces
   NPACO  =    256;   APACO  = 16.0  distance and # of slots for P.C.
   PSTRESS=    0.0 pullay stress

  Mass of Ions in am
   POMASS =  72.61118.71
  Ionic Valenz
   ZVAL   =  14.00 14.00
  Atomic Wigner-Seitz radii
   RWIGS  =  -1.00 -1.00
  virtual crystal weights 
   VCA    =   1.00  1.00
   NELECT =    3024.0000    total number of electrons
   NUPDOWN=      -1.0000    fix difference up-down

 DOS related values:
   EMIN   =  10.00;   EMAX   =-10.00  energy-range for DOS
   EFERMI =   0.00
   ISMEAR =     0;   SIGMA  =   0.05  broadening in eV -4-tet -1-fermi 0-gaus

 Electronic relaxation 2 (details)
   IALGO  =     53    algorithm
   LDIAG  =      T    sub-space diagonalisation (order eigenvalues)
   LSUBROT=      F    optimize rotation matrix (better conditioning)
   TURBO    =      0    0=normal 1=particle mesh
   IRESTART =      0    0=no restart 2=restart with 2 vectors
   NREBOOT  =      0    no. of reboots
   NMIN     =      0    reboot dimension
   EREF     =   0.00    reference energy to select bands
   IMIX   =      4    mixing-type and parameters
     AMIX     =   0.40;   BMIX     =  1.00
     AMIX_MAG =   1.60;   BMIX_MAG =  1.00
     AMIN     =   0.10
     WC   =   100.;   INIMIX=   1;  MIXPRE=   1;  MAXMIX= -45

 Intra band minimization:
   WEIMIN = 0.0000     energy-eigenvalue tresh-hold
   EBREAK =  0.14E-09  absolut break condition
   DEPER  =   0.30     relativ break condition  

   TIME   =   0.20     timestep for ELM

  volume/ion in A,a.u.               =      27.95       188.64
  Fermi-wavevector in a.u.,A,eV,Ry     =   1.300094  2.456822 22.997184  1.690245
  Thomas-Fermi vector in A             =   2.431316
 
 Write flags
   LWAVE        =      T    write WAVECAR
   LDOWNSAMPLE  =      F    k-point downsampling of WAVECAR
   LCHARG       =      T    write CHGCAR
   LVTOT        =      F    write LOCPOT, total local potential
   LVHAR        =      T    write LOCPOT, Hartree potential only
   LELF         =      F    write electronic localiz. function (ELF)
   LORBIT       =     11    0 simple, 1 ext, 2 COOP (PROOUT), +10 PAW based schemes


 Dipole corrections
   LMONO  =      F    monopole corrections only (constant potential shift)
   LDIPOL =      F    correct potential (dipole corrections)
   IDIPOL =      0    1-x, 2-y, 3-z, 4-all directions 
   EPSILON=  1.0000000 bulk dielectric constant

 Core level calculations are selected ICORELEVEL =  1
 Exchange correlation treatment:
   GGA     =    PE    GGA type
   LEXCH   =     8    internal setting for exchange type
   VOSKOWN=      0    Vosko Wilk Nusair interpolation
   EXXOEP  =     0    0=HF, 1=EXX-LHF (local Hartree Fock) 2=EXX OEP
   LHFCALC =     T    Hartree Fock is set to
   LSYMGRAD=     F    symmetrize gradient (conserves proper symmetry)
   PRECFOCK=normal    Normal, Fast or Accurate (Low or Medium for compatibility)
   LRHFCALC=     F    long range Hartree Fock
   LRSCOR  =     F    long range correlation only (use DFT for short range part)
   LTHOMAS =     F    Thomas Fermi screening in HF
   LMODELHF=     F    short range full HF, long range fraction AEXX
   ENCUT4O =  -1.0   cutoff for four orbital integrals eV
   LMAXFOCK=     4    L truncation for augmentation on plane wave grid
   LMAXFOCKAE=  -1    L truncation for all-electron charge restoration on plane wave grid
   NMAXFOCKAE=   1    number of basis functions for all-electron charge restoration
   LFOCKAEDFT=     F  apply the AE augmentation even for DFT
   NKREDX  =     1    reduce k-point grid by
   NKREDY  =     1    reduce k-point grid by
   NKREDZ  =     1    reduce k-point grid by
   SHIFTRED=     F    shift reduced grid of Gamma
   HFKIDENT=     F    idential grid for each k-point
   ODDONLY =     F    use only odd q-grid points
   EVENONLY=     F    use only even q-grid points
   HFALPHA =   -1.0000 decay constant for conv. correction
   MCALPHA =    0.0000 extent of test-charge in conv. correction in multipole expansion
   AEXX    =    0.2500 exact exchange contribution
   HFSCREEN=    0.2070 screening length (either q_TF or 0.3 A-1)
   HFSCREENC=   0.2070 screening length for correlation (either q_TF or 0.3 A-1)
   HFRCUT  =    0.0000 spherical cutoff for potential kernel
   ALDAX   =    0.7500 LDA exchange part
   AGGAX   =    0.7500 GGA exchange part
   ALDAC   =    1.0000 LDA correlation
   AGGAC   =    1.0000 GGA correlation
   ENCUTFOCK=  -1.0 apply spherical cutoff to Coloumb kernel
   NBANDSGWLOW=     1    first orbital included in HF term
   NBLOCK_FOCK=    64    blocking factor in FOCK_ACC
 Linear response parameters
   LEPSILON=     F    determine dielectric tensor
   LRPA    =     F    only Hartree local field effects (RPA)
   LNABLA  =     F    use nabla operator in PAW spheres
   LVEL    =     F    velocity operator in full k-point grid
   LINTERFAST=   F  fast interpolation
   KINTER  =     0    interpolate to denser k-point grid
   CSHIFT  =0.1000    complex shift for real part using Kramers Kronig
   OMEGAMAX=  -1.0    maximum frequency
   DEG_THRESHOLD= 0.2000000E-02 threshold for treating states as degnerate
   RTIME   =   -0.100 relaxation time in fs
  (WPLASMAI=    0.000 imaginary part of plasma frequency in eV, 0.658/RTIME)
   DFIELD  = 0.0000000 0.0000000 0.0000000 field for delta impulse in time
 
 Orbital magnetization related:
   ORBITALMAG=     F  switch on orbital magnetization
   LCHIMAG   =     F  perturbation theory with respect to B field
   DQ        =  0.001000  dq finite difference perturbation B field
   LLRAUG    =     F  two centre corrections for induced B field



--------------------------------------------------------------------------------------------------------


 Static calculation
 charge density and potential will be updated during run
 non-spin polarized calculation
 Conjugate gradient for all bands (Freysoldt, et al. PRB 79, 241103 (2009))
 perform sub-space diagonalisation
    before iterative eigenvector-optimisation
 modified Broyden-mixing scheme, WC =      100.0
 initial mixing is a Kerker type mixing with AMIX =  0.4000 and BMIX =      1.0000
 Hartree-type preconditioning will be used
 using additional bands          308
 reciprocal scheme for non local part
 use partial core corrections
 no Harris-corrections to forces 
 use gradient corrections 
 use of overlap-Matrix (Vanderbilt PP)
 Gauss-broadening in eV      SIGMA  =   0.05


--------------------------------------------------------------------------------------------------------


  energy-cutoff  :      400.00
  volume of cell :     6037.84
      direct lattice vectors                 reciprocal lattice vectors
    18.210971128  0.189700265 -0.032432627     0.054918029 -0.000568056  0.000089058
     0.188127031 18.184653458 -0.018657387    -0.000572783  0.054997417  0.000064631
    -0.029794744 -0.021738883 18.234426434     0.000097094  0.000055263  0.054841544

  length of vectors
    18.211988016 18.185636125 18.234463734     0.054921039  0.055000437  0.054841657


 
 old parameters found on file WAVECAR:
  energy-cutoff  :      400.00
  volume of cell :     6037.84
      direct lattice vectors                 reciprocal lattice vectors
    18.210971128  0.189700265 -0.032432627     0.054918029 -0.000568056  0.000089058
     0.188127031 18.184653458 -0.018657387    -0.000572783  0.054997417  0.000064631
    -0.029794744 -0.021738883 18.234426434     0.000097094  0.000055263  0.054841544

  length of vectors

 
 k-points in units of 2pi/SCALE and weight: k-points                                
   0.00000000  0.00000000  0.00000000       1.000
 
 k-points in reciprocal lattice and weights: k-points                                
   0.00000000  0.00000000  0.00000000       1.000
 
 position of ions in fractional coordinates (direct lattice) 
   0.92539298  0.07924406  0.16880116
   0.00004080  0.85986537  0.41428230
   0.76105134  0.21115956  0.58511632
   0.06370627  0.87129905  0.54653820
   0.51482202  0.76239556  0.99331143
   0.60962499  0.52549779  0.67034504
   0.21920933  0.43648809  0.50732453
   0.05260331  0.47806015  0.17009128
   0.41513113  0.85351532  0.93017266
   0.95560154  0.21395845  0.78518359
   0.11885599  0.33623500  0.89247112
   0.48471741  0.49777397  0.73750316
   0.37259633  0.95730045  0.03445685
   0.88665850  0.92104954  0.67279847
   0.48759252  0.26919579  0.09634730
   0.17102775  0.34714813  0.39135313
   0.66079178  0.46865541  0.19465259
   0.84189232  0.88446368  0.23009181
   0.60161788  0.54035328  0.52692036
   0.76144436  0.72781526  0.98467273
   0.71412838  0.45322413  0.48413695
   0.07513933  0.75413668  0.75581617
   0.11261983  0.02405820  0.55621264
   0.31655367  0.24885369  0.05745229
   0.10419040  0.24942421  0.75808578
   0.51965269  0.01049113  0.21577906
   0.85160725  0.45767123  0.56686932
   0.74479247  0.45925813  0.70698568
   0.98125435  0.14371231  0.60907079
   0.21529013  0.77367114  0.68414740
   0.17273754  0.35183435  0.63874537
   0.04356027  0.55548036  0.92259354
   0.49190659  0.85757780  0.29173403
   0.39785882  0.45712495  0.91678511
   0.86948323  0.49247884  0.40265230
   0.46664570  0.22532398  0.65113440
   0.49086850  0.43021164  0.45610723
   0.94795028  0.70250151  0.11607674
   0.38579491  0.70828990  0.30648690
   0.67966285  0.96409167  0.25507586
   0.23123847  0.49115572  0.94059017
   0.37264279  0.62039207  0.81722594
   0.90415680  0.29653000  0.58720494
   0.22904653  0.23974070  0.25915581
   0.12564423  0.28405836  0.11844164
   0.64451027  0.75048840  0.33893602
   0.18849070  0.63708608  0.80272972
   0.64705273  0.23497470  0.11180860
   0.68563187  0.34906589  0.59549580
   0.95183986  0.34681973  0.15257627
   0.89819583  0.44023982  0.00660797
   0.10432429  0.05663212  0.38850057
   0.81756887  0.21263509  0.05314349
   0.23465982  0.19853634  0.42791254
   0.75867738  0.48862310  0.87873498
   0.14431308  0.84023045  0.87618025
   0.92805394  0.45896766  0.83206583
   0.65033252  0.35500941  0.81407630
   0.10105786  0.84088666  0.05350828
   0.45685691  0.48475201  0.28884771
   0.18376498  0.93514529  0.20928444
   0.18123948  0.69001717  0.52959798
   0.24890146  0.06672674  0.29309317
   0.28786550  0.57458122  0.45757580
   0.60183719  0.95363838  0.41118665
   0.65907179  0.19508917  0.93829167
   0.35315313  0.89453560  0.18514146
   0.80300253  0.26572565  0.21916745
   0.21056103  0.12888014  0.11562934
   0.00585546  0.61142948  0.76079460
   0.27913275  0.81466751  0.00457918
   0.20766640  0.72435431  0.35763857
   0.42081737  0.11352900  0.51704857
   0.44581255  0.28572873  0.93637968
   0.31005096  0.77900324  0.83009867
   0.02842908  0.72526329  0.60376449
   0.80919382  0.43350362  0.25415533
   0.04240446  0.70252716  0.41925557
   0.32461311  0.88339721  0.36298374
   0.15185827  0.89064458  0.37198303
   0.31908530  0.30474027  0.73232212
   0.75330588  0.60708308  0.20865545
   0.33449267  0.39265296  0.39827447
   0.01723476  0.44115764  0.33112779
   0.79018544  0.31836498  0.91961053
   0.51667562  0.78629688  0.45475610
   0.96607656  0.30476242  0.91767577
   0.63346780  0.68053120  0.06697707
   0.52147281  0.98189217  0.91302204
   0.82723871  0.87001990  0.92428158
   0.74968328  0.54890191  0.03985567
   0.58350792  0.87487991  0.78063560
   0.42937807  0.57621908  0.13954402
   0.64532483  0.84777842  0.94585718
   0.01280088  0.40292745  0.68349205
   0.35200757  0.35853330  0.23140692
   0.36439616  0.06840016  0.16598589
   0.56426785  0.50678806  0.88001283
   0.73718322  0.92146904  0.08169459
   0.52779976  0.72232417  0.83515676
   0.52244876  0.38484481  0.61478317
   0.57898833  0.51249943  0.06337129
   0.98065158  0.78880390  0.26283078
   0.29607756  0.55434377  0.29182962
   0.01311134  0.13040893  0.91256693
   0.32219467  0.99200403  0.87745525
   0.81693632  0.75180524  0.32259662
   0.38799628  0.79115354  0.63675218
   0.56572315  0.12489807  0.41953913
   0.11349936  0.59589686  0.29303127
   0.73429308  0.59638570  0.37373507
   0.29422506  0.73455090  0.15713691
   0.16774834  0.19477708  0.95815345
   0.73063708  0.21625601  0.73823059
   0.53483439  0.91326492  0.07422957
   0.13157660  0.68654833  0.96416117
   0.08436985  0.11320966  0.22403299
   0.91792392  0.88108323  0.07946626
   0.81209092  0.98771080  0.79907596
   0.44396699  0.93924213  0.49012736
   0.76398149  0.07939768  0.15056732
   0.69408235  0.02604178  0.93300586
   0.25839885  0.15670971  0.81538787
   0.59791955  0.07611565  0.06662618
   0.56271467  0.81363556  0.62062524
   0.09066116  0.53030596  0.45954869
   0.79274775  0.94516097  0.37663729
   0.26821859  0.03050727  0.46709884
   0.30032606  0.13262207  0.64649497
   0.99052138  0.55661695  0.59741300
   0.21098527  0.97873801  0.04373940
   0.95984735  0.05597505  0.75405406
   0.74587399  0.38157447  0.08169195
   0.94057671  0.98940187  0.54013190
   0.46296278  0.61545137  0.97291490
   0.42112240  0.20650905  0.23024646
   0.73789193  0.78493629  0.79880568
   0.61022968  0.16213265  0.58033283
   0.29517506  0.64264335  0.97683832
   0.22363650  0.86374143  0.53116784
   0.75283414  0.03865420  0.63588354
   0.97394207  0.77175987  0.95132425
   0.08332190  0.42487408  0.02068760
   0.40394688  0.23117856  0.39606673
   0.01099436  0.95232971  0.21582332
   0.85795338  0.04252573  0.00475224
   0.86080318  0.82296558  0.47158710
   0.41811460  0.04560045  0.35127026
   0.03323327  0.01484318  0.04901091
   0.81998788  0.14841575  0.86679765
   0.93618028  0.62505110  0.29955735
   0.90281041  0.31466862  0.40686221
   0.62820495  0.81642156  0.18464130
   0.27805353  0.31657325  0.89830569
   0.48107111  0.34142015  0.78095667
   0.72550066  0.86930261  0.64953980
   0.98818318  0.94632693  0.89340032
   0.13244571  0.46748587  0.79812010
   0.35206598  0.74881681  0.47411840
   0.12744571  0.07803617  0.72292167
   0.04803971  0.90619821  0.70573035
   0.43796269  0.11443474  0.02374900
   0.25008666  0.40260890  0.08948121
   0.41547528  0.89786214  0.76462690
   0.15253671  0.02069568  0.89069707
   0.85652093  0.32923578  0.75070550
   0.67312798  0.64163460  0.87828865
   0.68913802  0.82904853  0.48802212
   0.05035511  0.20467186  0.44448132
   0.36014477  0.45587752  0.59213534
   0.98616420  0.19264019  0.07278440
   0.80939454  0.60933068  0.64142029
   0.09971875  0.62259546  0.11980521
   0.42405037  0.12571053  0.85681612
   0.90294679  0.53974122  0.15443832
   0.86592315  0.76757879  0.62848971
   0.32688638  0.27932541  0.55448595
   0.83769455  0.62932376  0.80828120
   0.62381686  0.47004998  0.35125247
   0.55179619  0.35303402  0.22460532
   0.46631345  0.05564634  0.70426868
   0.46328595  0.74911340  0.14872584
   0.52860762  0.62682314  0.37882494
   0.94563203  0.00796411  0.36590436
   0.89024762  0.62245026  0.97184622
   0.30459889  0.47151858  0.75554780
   0.58401607  0.16145203  0.25399984
   0.16053491  0.53311970  0.63219439
   0.14689951  0.19458308  0.58524607
   0.56778173  0.29310436  0.38161070
   0.18632015  0.42916825  0.25234624
   0.42604736  0.41442577  0.08248293
   0.13785444  0.76910398  0.20539988
   0.25876547  0.57009755  0.12555157
   0.69645338  0.66342627  0.52248533
   0.57161407  0.18786918  0.79168286
   0.22199710  0.93455333  0.74061235
   0.73350350  0.32588193  0.38179921
   0.64305647  0.03284398  0.76788246
   0.92015579  0.78888877  0.78711648
   0.47543844  0.65285104  0.68315756
   0.64632304  0.67704117  0.69308746
   0.91781887  0.17070021  0.30246608
   0.58064794  0.62134177  0.21786461
   0.72510413  0.07465849  0.47061970
   0.05377775  0.27636943  0.28280115
   0.60052705  0.35836059  0.98252548
   0.58532264  0.99258980  0.59355806
   0.05033823  0.36617177  0.50431866
   0.78681370  0.75691137  0.14218377
   0.74217337  0.13312444  0.31271342
   0.44261242  0.59861698  0.52443876
   0.33429341  0.96719607  0.62203180
   0.87929078  0.65152961  0.47157771
   0.29964604  0.62223128  0.65050627
   0.88025567  0.15039840  0.47043302
 
 position of ions in cartesian coordinates  (Angst):
  16.86218347  1.61290359  3.04650096
   0.15016353 15.62735551  7.53815588
  13.88177547  3.97151529 10.64063790
   1.30778400 15.84447525  9.94748824
   9.48924075 13.93996743 18.08154282
  11.18075076  9.65706875 12.19378118
   4.05901432  7.96794012  9.23551857
   1.04282553  8.69963951  3.09089153
   7.69279600 15.57940993 16.93177680
  17.41928905  4.05496906 14.28238785
   2.20114692  6.11746259 16.26357099
   8.89884584  9.12776559 13.42293922
   6.96440846 17.47810951  0.59835587
  16.30014081 16.90254011 12.22215325
   8.92730565  4.98563406  1.73600134
   3.16822908  6.33670496  7.12407613
  12.11602721  8.64345706  3.51920322
  15.49121275 16.23837086  4.15178567
  11.04200152  9.92880951  9.57849688
  13.97422497 13.35810874 17.91666774
  13.07581022  8.36666947  8.79634249
   1.48771433 13.71153762 13.76536723
   2.03887022  0.44676264 10.13811703
   5.80985400  4.58411943  1.03269986
   1.92174491  4.53897787 13.81522669
   9.45892466  0.28466498  3.91755804
  15.57780567  8.47181964 10.30037802
  13.62872865  8.47736818 12.85875415
  17.87848379  2.78626230 11.07155062
   4.04580677 14.09490964 12.45361842
   3.19287665  6.41686848 11.63498873
   0.87028717 10.08942511 16.81118741
   9.11073822 15.68172798  5.28764870
   7.30407764  8.36820283 16.69561836
  15.91478563  9.11174503  7.30474576
   8.52106059  4.17180634 11.85372384
   9.00653701  7.90645225  8.29290697
  17.39179615 12.95204951  2.07274137
   7.14981683 12.94652901  5.56288571
  12.55109224 17.65506010  4.61113136
   4.27545217  8.95491516 17.13445893
   6.87855064 11.33453964 14.87798564
  16.50386309  5.55104897 10.67248869
   4.20854003  4.39741798  4.71365606
   2.33801355  5.18676281  2.15034059
  11.86824654 13.76226716  6.14539863
   3.52853476 11.60349596 14.61931648
  11.82433238  4.39324890  2.01339597
  12.53394835  6.46476142 10.82977485
  17.39462842  6.48404408  2.74479932
  16.43964240  8.17585297  0.08314788
   1.89892532  1.04118028  7.07964497
  14.92714212  4.02063313  0.93855794
   4.29798379  3.64552728  7.79142502
  13.88199339  9.01026027 15.98950606
   2.76004591 15.28762867 15.95628733
  16.96231659  8.50413168 15.13358076
  11.88571834  6.56139429 14.81649893
   1.99696094 15.30923996  0.95672653
   8.40239678  8.89543405  5.24311106
   3.51622924 17.03560371  3.79277440
   3.41457867 12.57059138  9.63816333
   4.53655786  1.25424774  5.33506837
   5.33677117 10.49322137  8.32357581
  11.12719362 17.44681339  7.46044121
  12.01108274  3.65225756 17.08419515
   6.59403145 16.32978840  3.34780494
  14.66691605  4.97969426  3.96539154
   3.85532153  2.38107047  2.09920108
   0.19899228 11.10320522 13.86105555
   5.23640304 14.86729834  0.05924608
   3.90742175 13.20375184  6.50108454
   7.66944555  2.13307465  9.41231774
   8.14453361  5.26009284 17.05455653
   5.76814805 14.20667533 15.11178311
   0.63617378 13.18092942 10.99484562
  14.81018658  8.03109239  4.60004433
   0.89189911 12.77414301  7.63040228
   6.06689582 16.11796049  6.59179033
   2.92195778 16.21678413  6.76135487
   5.84636376  5.58620694 13.33743944
  13.82642352 11.17796176  3.76895412
   6.15343859  7.19505327  7.24413218
   0.38698949  8.01836982  6.02913554
  14.42253773  5.91926386 16.73700289
   9.54353909 14.38666389  8.26078926
  17.62318450  5.70531474 16.69627276
  11.66209466 12.49393708  1.18804646
   9.65404357 17.93444426 16.61320090
  15.20095574 15.95784493 16.81068274
  13.75453630 10.12293968  0.69219003
  10.76757559 16.00310952 14.19919475
   7.92363632 10.55676382  2.51982859
  11.88330037 15.51841325 17.21041621
   0.28855349  7.31466604 12.45515268
   6.47095484  6.58154928  4.20146670
   6.64393039  1.30935099  3.01356299
  10.34498629  9.30367650 16.01877321
  13.59574145 16.89466311  1.44855305
   9.72275166 13.21718318 15.19800998
   9.56838177  7.08401356 11.18609383
  10.63846668  9.42808113  1.12719907
  17.99918197 14.52444178  4.74604642
   5.48745187 10.13037127  5.30140049
   0.23611405  2.35409025 16.63727616
   6.02795698 18.08129494 15.97093540
  15.00902690 13.81927783  5.84184224
   7.19565463 14.44661372 11.58346614
  10.31336450  2.36942560  7.62937726
   2.17030708 10.85133862  5.32845813
  13.47325095 10.97623825  6.77990254
   5.49163109 13.40995213  2.84205415
   3.06295516  3.55294647 17.46230400
  13.32429896  4.05509441 13.43348011
   9.90945183 16.70725071  1.31914838
   2.49656898 12.48864377 17.56384944
   1.55107973  2.06981318  4.08026454
  16.87967381 16.19459606  1.40281236
  14.95097107 18.09786142 14.52592552
   8.24716365 17.15335847  8.90526845
  13.92329558  1.58547357  2.71924940
  12.61701411  0.58494576 16.98983001
   4.71088103  2.88100457 14.85682573
  10.90103001  1.49611385  1.19407801
  10.38215599 14.88893611 11.28331467
   1.73710054  9.65063853  8.36677222
  14.60329489 17.32962144  6.82441978
   4.87634321  0.59549102  8.50801116
   5.47491686  2.45460423 11.77625017
  18.12527111 10.29680134 10.85097322
   4.02507048 17.83708469  0.77245931
  17.46781589  1.18357795 13.71756856
  13.65244024  7.07851607  1.45829609
  17.29885554 18.15861597  9.80003036
   8.51779711 11.25844404 17.71404727
   7.70103774  3.83017728  4.18090111
  13.56159607 14.39640764 14.52718677
  11.12608583  3.05147107 10.55921996
   5.46721847 11.72100612 17.79052322
   4.21930500 15.73771540  9.66217270
  13.69816673  0.83190274 11.56983398
  17.85327529 14.19826207 17.30086551
   1.59668660  7.74154435  0.36659722
   7.38795515  4.27192082  7.20463536
   0.37294662 17.31517963  3.91728982
  15.63202296  0.93596626  0.05803528
  15.81683317 15.11838670  8.55584777
   7.61238564  0.90090852  6.39080041
   0.60654232  0.27515701  0.89233114
  14.93487063  2.83559773 15.77619452
  17.15741581 11.53741924  5.42023180
  16.48812955  5.88455846  7.38374757
  11.58831186 14.96149986  3.33122150
   5.09641594  5.78999357 16.36516456
   8.80173402  6.28288924 14.21832452
  13.35625811 15.93147405 11.80423682
  18.14718638 17.37666432 16.24093697
   2.47613198  8.50884320 14.54024458
   6.53820984 13.67345441  8.61988762
   2.31405162  1.42752170 13.17647271
   1.02430306 16.47267178 12.85012284
   7.99654660  2.16352148  0.41671010
   4.62739649  7.36679970  1.61601586
   7.71233858 16.38950545 13.91230618
   2.75519692  0.38591729 16.23601687
  15.63764908  6.13320140 13.65476224
  12.35285471 11.77650247 15.98128730
  12.69129844 15.19608082  8.86098509
   0.94227664  3.72177673  8.09941008
   6.62670638  8.34542184 10.77706242
  17.99308009  3.68858840  1.29160372
  14.83538114 11.22006580 11.65831186
   1.92953267 11.33799499  2.16972907
   7.72048998  2.34781864 15.60745205
  16.54047648  9.98293905  2.77673904
  15.89497808 14.10875750 11.41774414
   5.98894626  5.12939237 10.09492008
  15.34954155 11.58537424 14.69963385
  11.43827441  8.65839844  6.37588535
  10.10846759  6.51959462  4.07106635
   8.48150585  1.08505909 12.82577344
   8.57338425 13.70701988  2.68292839
   9.73309346 11.49060336  6.87881656
  17.21147391  0.31625695  6.64123829
  16.30041743 11.46679569 17.68057205
   5.61323564  8.61575975 13.75830453
  10.65830547  3.04121546  4.60958789
   3.00495481  9.71130730 11.51254883
   2.69435182  3.55357012 10.66323168
  10.38362751  5.42941371  6.93456897
   3.46629044  7.83413518  4.58733901
   7.83424331  7.61521729  1.48247902
   2.64903262 14.00757512  3.72652858
   4.81588055 10.41338484  2.27033189
  12.79233354 12.18493597  9.49225465
  10.42140261  3.50756093 14.41383876
   4.19653109 17.02054119 13.48000519
  13.40774258  6.05689588  6.93202005
  11.69398280  0.70255151 13.98042752
  16.88188994 14.50311165 14.30805587
   8.76066020 11.94720968 12.42938610
  11.87688959 12.41929981 12.60445861
  16.73747443  3.27165943  5.48234338
  10.68456284 11.40429774  3.94221163
  13.20487358  1.48496056  8.55657035
   1.02291168  5.02973626  5.14981636
  10.97432399  6.60922434 17.88962578
  10.82834174 18.14803416 10.78568817
   0.97056887  6.65729256  9.18749715
  14.46680078 13.91033885  2.55299904
  13.53142489  2.55481429  5.67559540
   8.15739249 10.95820527  9.53731630
   6.25123013 17.63801857 11.31350567
  16.12125882 12.00439029  8.55827555
   5.55452215 11.35776186 11.84028127
  16.04458818  2.89170086  8.54672125
 


--------------------------------------------------------------------------------------------------------


 k-point  1 :   0.0000 0.0000 0.0000  plane waves:  109651

 maximum and minimum number of plane-waves per node :      3431     3422

 maximum number of plane-waves:    109651
 maximum index in each direction: 
   IXMAX=   29   IYMAX=   29   IZMAX=   29
   IXMIN=  -29   IYMIN=  -29   IZMIN=  -29


 parallel 3D FFT for wavefunctions:
    minimum data exchange during FFTs selected (reduces bandwidth)
 parallel 3D FFT for charge:
    minimum data exchange during FFTs selected (reduces bandwidth)


 FFT grid for exact exchange (Hartree Fock) 
  NGX = 90; NGY = 90; NGZ = 90

 
 Radii for the augmentation spheres in the non-local exchange
 for species   1 augmentation radius   1.239 (default was   0.991)
       energy cutoff for augmentation   1600.0
 for species   2 augmentation radius   1.362 (default was   1.089)
       energy cutoff for augmentation   1600.0

 real space projection operators:
  total allocation   :      52527.54 KBytes
  max/ min on nodes  :       1820.70       1125.00

 Maximum index for augmentation-charges in exchange          146
  SETUP_FOCK is finished

 total amount of memory used by VASP MPI-rank0    80070. kBytes
=======================================================================

   base      :      30000. kBytes
   nonl-proj :      12879. kBytes
   fftplans  :       6880. kBytes
   grid      :       7372. kBytes
   one-center:        108. kBytes
   HF        :        129. kBytes
   nonlr-proj:       7066. kBytes
   wavefun   :      15636. kBytes
 
     INWAV:  cpu time   22.7427: real time   30.0730
 Broyden mixing: mesh for mixing (old mesh)
   NGX = 59   NGY = 59   NGZ = 59
  (NGX  =240   NGY  =240   NGZ  =240)
  gives a total of 205379 points

 initial charge density was supplied:
 number of electron    3024.0000261 magnetization 
 charge density for first step will be calculated from the start-wavefunctions


--------------------------------------------------------------------------------------------------------


 Maximum index for augmentation-charges          639 (set IRDMAX)


--------------------------------------------------------------------------------------------------------


 initial charge from wavefunction
 First call to EWALD:  gamma=   0.097
 Maximum number of real-space cells 3x 3x 3
 Maximum number of reciprocal cells 3x 3x 3

    FEWALD:  cpu time    0.0126: real time    0.0135


--------------------------------------- Iteration      1(   1)  ---------------------------------------


    POTLOK:  cpu time    0.1446: real time    0.1447
    SETDIJ:  cpu time    0.5388: real time    0.5390
    TRIAL :  cpu time  576.2063: real time  576.2793
    CORREC:  cpu time    0.0115: real time    0.0120
    CHARGE:  cpu time    0.0962: real time    0.0962
    --------------------------------------------
      LOOP:  cpu time  577.0239: real time  577.1058

 eigenvalue-minimisations  :     0
 total energy-change (2. order) :-0.9256427E+03  (-0.5044612E+01)
 number of electron    3024.0000260 magnetization 
 augmentation part     1619.3606811 magnetization 

 Free energy of the ion-electron system (eV)
  ---------------------------------------------------
  alpha Z        PSCENC =      8925.05550620
  Ewald energy   TEWEN  =   -285198.57274009
  -Hartree energ DENC   =   -115510.13453390
  -exchange      EXHF   =      7213.16832721
  -V(xc)+E(xc)   XCENC  =      9601.46230269
  PAW double counting   =    460402.11097977  -475409.89373010
  entropy T*S    EENTRO =        -0.00121033
  eigenvalues    EBANDS =    -35112.99980085
  atomic energy  EATOM  =    424164.16224455
  ---------------------------------------------------
  free energy    TOTEN  =      -925.64265534 eV

  energy without entropy =     -925.64144501  energy(sigma->0) =     -925.64205017
  exchange ACFDT corr.  =        -0.00026237  see jH, gK, PRB 81, 115126


--------------------------------------------------------------------------------------------------------




--------------------------------------- Iteration      1(   2)  ---------------------------------------


    POTLOK:  cpu time    0.1543: real time    0.1544
    SETDIJ:  cpu time    0.5372: real time    0.5375
    TRIAL :  cpu time  581.3324: real time  581.4039
    CORREC:  cpu time    0.0116: real time    0.0119
    CHARGE:  cpu time    0.0954: real time    0.0954
    --------------------------------------------
      LOOP:  cpu time  582.1469: real time  582.2608

 eigenvalue-minimisations  :     0
 total energy-change (2. order) :-0.4707760E+01  (-0.6536902E+01)
 number of electron    3024.0000260 magnetization 
 augmentation part     1618.7641988 magnetization 

 Free energy of the ion-electron system (eV)
  ---------------------------------------------------
  alpha Z        PSCENC =      8925.05550620
  Ewald energy   TEWEN  =   -285198.57274009
  -Hartree energ DENC   =   -115525.62319610
  -exchange      EXHF   =      7213.67108862
  -V(xc)+E(xc)   XCENC  =      9601.82584058
  PAW double counting   =    455594.93947804  -470605.40503126
  entropy T*S    EENTRO =        -0.00132245
  eigenvalues    EBANDS =    -35100.40239547
  atomic energy  EATOM  =    424164.16224455
  ---------------------------------------------------
  free energy    TOTEN  =      -930.35041526 eV

  energy without entropy =     -930.34909281  energy(sigma->0) =     -930.34975403
  exchange ACFDT corr.  =        -0.00026224  see jH, gK, PRB 81, 115126


--------------------------------------------------------------------------------------------------------




--------------------------------------- Iteration      1(   3)  ---------------------------------------


    POTLOK:  cpu time    0.1177: real time    0.1178
    SETDIJ:  cpu time    0.5365: real time    0.5368
    TRIAL :  cpu time  584.3886: real time  584.4571
    CORREC:  cpu time    0.0117: real time    0.0120
    CHARGE:  cpu time    0.0945: real time    0.0945
    --------------------------------------------
      LOOP:  cpu time  585.1599: real time  585.2711

 eigenvalue-minimisations  :     0
 total energy-change (2. order) :-0.6240046E+01  (-0.6094012E+01)
 number of electron    3024.0000260 magnetization 
 augmentation part     1618.1353869 magnetization 

 Free energy of the ion-electron system (eV)
  ---------------------------------------------------
  alpha Z        PSCENC =      8925.05550620
  Ewald energy   TEWEN  =   -285198.57274009
  -Hartree energ DENC   =   -115545.50851955
  -exchange      EXHF   =      7214.39470071
  -V(xc)+E(xc)   XCENC  =      9602.40639473
  PAW double counting   =    448906.08451539  -463921.67118466
  entropy T*S    EENTRO =        -0.00162014
  eigenvalues    EBANDS =    -35082.94005566
  atomic energy  EATOM  =    424164.16224455
  ---------------------------------------------------
  free energy    TOTEN  =      -936.59046083 eV

  energy without entropy =     -936.58884070  energy(sigma->0) =     -936.58965076
  exchange ACFDT corr.  =        -0.00029193  see jH, gK, PRB 81, 115126


--------------------------------------------------------------------------------------------------------




--------------------------------------- Iteration      1(   4)  ---------------------------------------


    POTLOK:  cpu time    0.1178: real time    0.1178
    SETDIJ:  cpu time    0.5360: real time    0.5363
    TRIAL :  cpu time  582.9014: real time  582.9735
    CORREC:  cpu time    0.0116: real time    0.0119
    CHARGE:  cpu time    0.0951: real time    0.0952
    --------------------------------------------
      LOOP:  cpu time  583.6762: real time  583.7890

 eigenvalue-minimisations  :     0
 total energy-change (2. order) :-0.5849714E+01  (-0.5030689E+01)
 number of electron    3024.0000260 magnetization 
 augmentation part     1617.5677290 magnetization 

 Free energy of the ion-electron system (eV)
  ---------------------------------------------------
  alpha Z        PSCENC =      8925.05550620
  Ewald energy   TEWEN  =   -285198.57274009
  -Hartree energ DENC   =   -115566.64555019
  -exchange      EXHF   =      7215.10449136
  -V(xc)+E(xc)   XCENC  =      9603.00958861
  PAW double counting   =    442144.33056887  -457165.62455830
  entropy T*S    EENTRO =        -0.00207755
  eigenvalues    EBANDS =    -35063.25810535
  atomic energy  EATOM  =    424164.16224455
  ---------------------------------------------------
  free energy    TOTEN  =      -942.44017448 eV

  energy without entropy =     -942.43809693  energy(sigma->0) =     -942.43913571
  exchange ACFDT corr.  =        -0.00036313  see jH, gK, PRB 81, 115126


--------------------------------------------------------------------------------------------------------




--------------------------------------- Iteration      1(   5)  ---------------------------------------


    POTLOK:  cpu time    0.1179: real time    0.1179
    SETDIJ:  cpu time    0.5372: real time    0.5375
    TRIAL :  cpu time  582.4369: real time  582.5067
    CORREC:  cpu time    0.0116: real time    0.0120
    CHARGE:  cpu time    0.0948: real time    0.0948
    --------------------------------------------
      LOOP:  cpu time  583.2214: real time  583.3242

 eigenvalue-minimisations  :     0
 total energy-change (2. order) :-0.4885827E+01  (-0.3896622E+01)
 number of electron    3024.0000260 magnetization 
 augmentation part     1617.1291865 magnetization 

 Free energy of the ion-electron system (eV)
  ---------------------------------------------------
  alpha Z        PSCENC =      8925.05550620
  Ewald energy   TEWEN  =   -285198.57274009
  -Hartree energ DENC   =   -115585.78370108
  -exchange      EXHF   =      7215.69299072
  -V(xc)+E(xc)   XCENC  =      9603.51895311
  PAW double counting   =    436249.37852146  -451275.02468814
  entropy T*S    EENTRO =        -0.00253487
  eigenvalues    EBANDS =    -35045.75101034
  atomic energy  EATOM  =    424164.16224455
  ---------------------------------------------------
  free energy    TOTEN  =      -947.32600116 eV

  energy without entropy =     -947.32346629  energy(sigma->0) =     -947.32473372
  exchange ACFDT corr.  =        -0.00048188  see jH, gK, PRB 81, 115126


--------------------------------------------------------------------------------------------------------




--------------------------------------- Iteration      1(   6)  ---------------------------------------


    POTLOK:  cpu time    0.1178: real time    0.1178
    SETDIJ:  cpu time    0.5368: real time    0.5371
    TRIAL :  cpu time  584.0629: real time  584.1341
    CORREC:  cpu time    0.0116: real time    0.0119
    CHARGE:  cpu time    0.0953: real time    0.0953
    --------------------------------------------
      LOOP:  cpu time  584.8650: real time  584.9805

 eigenvalue-minimisations  :     0
 total energy-change (2. order) :-0.3856092E+01  (-0.3042169E+01)
 number of electron    3024.0000260 magnetization 
 augmentation part     1616.8155833 magnetization 

 Free energy of the ion-electron system (eV)
  ---------------------------------------------------
  alpha Z        PSCENC =      8925.05550620
  Ewald energy   TEWEN  =   -285198.57274009
  -Hartree energ DENC   =   -115600.70327384
  -exchange      EXHF   =      7216.17729311
  -V(xc)+E(xc)   XCENC  =      9603.94489549
  PAW double counting   =    431570.67004203  -446599.04167457
  entropy T*S    EENTRO =        -0.00271722
  eigenvalues    EBANDS =    -35032.87185131
  atomic energy  EATOM  =    424164.16224455
  ---------------------------------------------------
  free energy    TOTEN  =      -951.18209329 eV

  energy without entropy =     -951.17937607  energy(sigma->0) =     -951.18073468
  exchange ACFDT corr.  =        -0.00060665  see jH, gK, PRB 81, 115126


--------------------------------------------------------------------------------------------------------




--------------------------------------- Iteration      1(   7)  ---------------------------------------


    POTLOK:  cpu time    0.1172: real time    0.1172
    SETDIJ:  cpu time    0.5376: real time    0.5379
    TRIAL :  cpu time  580.1504: real time  580.2188
    CORREC:  cpu time    0.0115: real time    0.0118
    CHARGE:  cpu time    0.0946: real time    0.0946
    --------------------------------------------
      LOOP:  cpu time  580.9508: real time  581.0566

 eigenvalue-minimisations  :     0
 total energy-change (2. order) :-0.3017700E+01  (-0.2371397E+01)
 number of electron    3024.0000260 magnetization 
 augmentation part     1616.6029124 magnetization 

 Free energy of the ion-electron system (eV)
  ---------------------------------------------------
  alpha Z        PSCENC =      8925.05550620
  Ewald energy   TEWEN  =   -285198.57274009
  -Hartree energ DENC   =   -115610.50055115
  -exchange      EXHF   =      7216.53765340
  -V(xc)+E(xc)   XCENC  =      9604.24245290
  PAW double counting   =    428099.06858124  -443128.76051458
  entropy T*S    EENTRO =        -0.00246663
  eigenvalues    EBANDS =    -35025.42970865
  atomic energy  EATOM  =    424164.16224455
  ---------------------------------------------------
  free energy    TOTEN  =      -954.19979340 eV

  energy without entropy =     -954.19732677  energy(sigma->0) =     -954.19856009
  exchange ACFDT corr.  =        -0.00066061  see jH, gK, PRB 81, 115126


--------------------------------------------------------------------------------------------------------




--------------------------------------- Iteration      1(   8)  ---------------------------------------


    POTLOK:  cpu time    0.1178: real time    0.1178
    SETDIJ:  cpu time    0.5362: real time    0.5364
    TRIAL :  cpu time  579.3961: real time  579.4662
    CORREC:  cpu time    0.0115: real time    0.0118
    CHARGE:  cpu time    0.0945: real time    0.0945
    --------------------------------------------
      LOOP:  cpu time  580.1742: real time  580.2935

 eigenvalue-minimisations  :     0
 total energy-change (2. order) :-0.2343045E+01  (-0.1831332E+01)
 number of electron    3024.0000260 magnetization 
 augmentation part     1616.4817480 magnetization 

 Free energy of the ion-electron system (eV)
  ---------------------------------------------------
  alpha Z        PSCENC =      8925.05550620
  Ewald energy   TEWEN  =   -285198.57274009
  -Hartree energ DENC   =   -115616.13587445
  -exchange      EXHF   =      7216.77543558
  -V(xc)+E(xc)   XCENC  =      9604.40569202
  PAW double counting   =    425655.54293939  -440685.38929614
  entropy T*S    EENTRO =        -0.00195909
  eigenvalues    EBANDS =    -35022.38427890
  atomic energy  EATOM  =    424164.16224455
  ---------------------------------------------------
[...]
      1.55108      2.06981      4.08026         0.039310      0.015520      0.015145
     16.87967     16.19460      1.40281         0.005784     -0.018998     -0.012215
     14.95097     18.09786     14.52593         0.047185      0.017746     -0.032413
      8.24716     17.15336      8.90527        -0.007895      0.057293     -0.045572
     13.92330      1.58547      2.71925         0.046573     -0.020506     -0.014417
     12.61701      0.58495     16.98983        -0.048873      0.060551      0.006273
      4.71088      2.88100     14.85683         0.010841      0.019347      0.004887
     10.90103      1.49611      1.19408        -0.024669      0.022070     -0.042008
     10.38216     14.88894     11.28331         0.041886      0.007925      0.023437
      1.73710      9.65064      8.36677        -0.020769     -0.039858      0.038539
     14.60329     17.32962      6.82442         0.026845      0.004915     -0.044270
      4.87634      0.59549      8.50801        -0.011745      0.032197     -0.020348
      5.47492      2.45460     11.77625         0.010854     -0.018994     -0.031341
     18.12527     10.29680     10.85097         0.052522     -0.007131      0.029031
      4.02507     17.83708      0.77246         0.002646      0.034210     -0.002096
     17.46782      1.18358     13.71757         0.019910      0.045454     -0.003455
     13.65244      7.07852      1.45830        -0.029223      0.027244     -0.046688
     17.29886     18.15862      9.80003         0.083696      0.004855      0.007573
      8.51780     11.25844     17.71405        -0.016599      0.025376      0.008486
      7.70104      3.83018      4.18090         0.005419      0.023378     -0.026359
     13.56160     14.39641     14.52719        -0.017815     -0.002400     -0.029174
     11.12609      3.05147     10.55922         0.006700     -0.064582     -0.068141
      5.46722     11.72101     17.79052        -0.024674     -0.060425      0.027810
      4.21931     15.73772      9.66217        -0.056362     -0.014366      0.007342
     13.69817      0.83190     11.56983        -0.110621     -0.082420      0.021707
     17.85328     14.19826     17.30087        -0.015111      0.022036      0.043962
      1.59669      7.74154      0.36660         0.019074      0.007852     -0.055039
      7.38796      4.27192      7.20464        -0.026443     -0.037773     -0.024365
      0.37295     17.31518      3.91729        -0.003524      0.063183     -0.027883
     15.63202      0.93597      0.05804        -0.032971      0.001276      0.036853
     15.81683     15.11839      8.55585        -0.009714     -0.012446     -0.060116
      7.61239      0.90091      6.39080         0.008127     -0.012008      0.022463
      0.60654      0.27516      0.89233        -0.067449     -0.039480     -0.028992
     14.93487      2.83560     15.77619        -0.067945      0.008535     -0.040281
     17.15742     11.53742      5.42023        -0.009919      0.053967     -0.000001
     16.48813      5.88456      7.38375        -0.009772     -0.036264      0.043149
     11.58831     14.96150      3.33122         0.003356      0.009949      0.028755
      5.09642      5.78999     16.36516        -0.018304     -0.042134      0.018691
      8.80173      6.28289     14.21832         0.017258     -0.024714     -0.033024
     13.35626     15.93147     11.80424        -0.004959     -0.008414     -0.023770
     18.14719     17.37666     16.24094        -0.008393      0.043984      0.019941
      2.47613      8.50884     14.54024         0.044730      0.024822      0.054205
      6.53821     13.67345      8.61989         0.035103      0.030637     -0.019661
      2.31405      1.42752     13.17647        -0.011290     -0.031440      0.017284
      1.02430     16.47267     12.85012        -0.027215     -0.043519     -0.008585
      7.99655      2.16352      0.41671         0.031496     -0.036363      0.009841
      4.62740      7.36680      1.61602         0.003973     -0.004003      0.011608
      7.71234     16.38951     13.91231        -0.022322     -0.013114     -0.002376
      2.75520      0.38592     16.23602         0.054056     -0.028284      0.013228
     15.63765      6.13320     13.65476         0.052718     -0.076631      0.034093
     12.35285     11.77650     15.98129         0.010248     -0.003194      0.009881
     12.69130     15.19608      8.86099        -0.028963     -0.036423      0.002124
      0.94228      3.72178      8.09941         0.037285     -0.024115      0.014708
      6.62671      8.34542     10.77706        -0.019926      0.003885     -0.001555
     17.99308      3.68859      1.29160        -0.041499     -0.045363      0.011963
     14.83538     11.22007     11.65831        -0.029190      0.028402     -0.026937
      1.92953     11.33799      2.16973         0.026013      0.004869      0.053898
      7.72049      2.34782     15.60745        -0.030031     -0.034863      0.027689
     16.54048      9.98294      2.77674        -0.022972      0.031701      0.061648
     15.89498     14.10876     11.41774         0.019562      0.053891      0.002590
      5.98895      5.12939     10.09492         0.015279     -0.083410      0.029103
     15.34954     11.58537     14.69963         0.002819     -0.006974      0.004806
     11.43827      8.65840      6.37589         0.003333      0.034086      0.020285
     10.10847      6.51959      4.07107         0.002741      0.053172      0.065021
      8.48151      1.08506     12.82577        -0.025805      0.013084      0.013660
      8.57338     13.70702      2.68293        -0.023179      0.010115      0.025036
      9.73309     11.49060      6.87882        -0.002666      0.037634     -0.044622
     17.21147      0.31626      6.64124         0.021871     -0.036164      0.022984
     16.30042     11.46680     17.68057        -0.012322      0.029241     -0.005214
      5.61324      8.61576     13.75830         0.011292     -0.021801     -0.046658
     10.65831      3.04122      4.60959        -0.029327     -0.034480      0.016678
      3.00495      9.71131     11.51255         0.027935     -0.008115     -0.019825
      2.69435      3.55357     10.66323        -0.018245     -0.005081     -0.000660
     10.38363      5.42941      6.93457         0.000100      0.012594     -0.066214
      3.46629      7.83414      4.58734         0.019531      0.025761     -0.008874
      7.83424      7.61522      1.48248        -0.010107     -0.035777      0.013168
      2.64903     14.00758      3.72653         0.034102      0.022881     -0.003788
      4.81588     10.41338      2.27033         0.024556      0.053490     -0.009707
     12.79233     12.18494      9.49225        -0.012927     -0.049101     -0.029370
     10.42140      3.50756     14.41384         0.056961     -0.007227      0.020804
      4.19653     17.02054     13.48001        -0.014883     -0.003158     -0.041760
     13.40774      6.05690      6.93202        -0.016108      0.067445      0.007721
     11.69398      0.70255     13.98043         0.033213     -0.027990      0.026552
     16.88189     14.50311     14.30806         0.007005     -0.020570     -0.039776
      8.76066     11.94721     12.42939        -0.040754      0.007983      0.000486
     11.87689     12.41930     12.60446        -0.082613     -0.024204     -0.050938
     16.73747      3.27166      5.48234        -0.044425      0.038219     -0.002491
     10.68456     11.40430      3.94221         0.033827     -0.018618     -0.048746
     13.20487      1.48496      8.55657        -0.008890      0.012713     -0.051106
      1.02291      5.02974      5.14982        -0.010409     -0.048470     -0.017805
     10.97432      6.60922     17.88963         0.036028      0.023301     -0.018913
     10.82834     18.14803     10.78569        -0.003162      0.077327      0.022220
      0.97057      6.65729      9.18750         0.037968     -0.019835     -0.034701
     14.46680     13.91034      2.55300        -0.013060     -0.017561      0.028481
     13.53142      2.55481      5.67560        -0.014911     -0.012268     -0.068013
      8.15739     10.95821      9.53732        -0.014929     -0.031156      0.005155
      6.25123     17.63802     11.31351        -0.015959      0.011777      0.021995
     16.12126     12.00439      8.55828        -0.034395      0.012649     -0.053070
      5.55452     11.35776     11.84028        -0.061034     -0.012773      0.031424
     16.04459      2.89170      8.54672         0.057551      0.020446     -0.018252
 -----------------------------------------------------------------------------------
    total drift:                               -0.015974     -0.001353      0.007266


--------------------------------------------------------------------------------------------------------



  FREE ENERGIE OF THE ION-ELECTRON SYSTEM (eV)
  ---------------------------------------------------
  free  energy   TOTEN  =      -962.71688806 eV

  energy  without entropy=     -962.71659011  energy(sigma->0) =     -962.71673908
 


--------------------------------------------------------------------------------------------------------


    POTLOK:  cpu time    0.6797: real time    0.7906


--------------------------------------------------------------------------------------------------------


 writing wavefunctions
     LOOP+:  cpu time24647.3445: real time24852.3805
    4ORBIT:  cpu time    0.0000: real time    0.0000
 


 total charge     
 
# of ion       s       p       d       tot
------------------------------------------
    1        1.249   0.933  10.000  12.182
    2        1.229   0.989  10.005  12.222
    3        1.250   0.943   9.997  12.191
    4        1.226   0.994   9.999  12.219
    5        1.224   0.999  10.006  12.230
    6        1.211   1.018  10.005  12.234
    7        1.242   0.957  10.007  12.206
    8        1.250   0.940   9.999  12.188
    9        1.247   0.950  10.008  12.204
   10        1.230   0.999  10.003  12.231
   11        1.223   1.004   9.999  12.226
   12        1.251   0.936  10.001  12.188
   13        1.245   0.940  10.003  12.188
   14        1.246   0.944  10.001  12.190
   15        1.257   0.933  10.002  12.191
   16        1.262   0.907  10.000  12.169
   17        1.238   0.969  10.000  12.206
   18        1.276   0.876   9.994  12.146
   19        1.228   0.971  10.004  12.203
   20        1.257   0.919   9.999  12.175
   21        1.220   0.997  10.002  12.219
   22        1.221   1.017  10.004  12.242
   23        1.300   0.938   9.974  12.213
   24        1.326   0.882   9.973  12.182
   25        1.287   0.937   9.973  12.197
   26        1.277   0.984   9.978  12.239
   27        1.298   0.932   9.978  12.208
   28        1.265   0.999   9.977  12.241
   29        1.295   0.943   9.973  12.211
   30        1.287   0.957   9.982  12.226
   31        1.285   0.953   9.980  12.219
   32        1.285   0.975   9.974  12.234
   33        1.315   0.891   9.973  12.179
   34        1.306   0.915   9.969  12.190
   35        1.280   0.985   9.977  12.241
   36        1.295   0.941   9.976  12.212
   37        1.291   0.937   9.975  12.204
   38        1.290   0.966   9.970  12.226
   39        1.309   0.896   9.963  12.169
   40        1.294   0.947   9.971  12.212
   41        1.305   0.914   9.973  12.192
   42        1.305   0.920   9.979  12.204
   43        1.289   0.951   9.971  12.212
   44        1.322   0.884   9.975  12.182
   45        1.309   0.898   9.976  12.183
   46        1.301   0.935   9.973  12.209
   47        1.339   0.842   9.972  12.153
   48        1.297   0.927   9.978  12.202
   49        1.275   0.975   9.971  12.221
   50        1.325   0.842   9.968  12.135
   51        1.320   0.892   9.975  12.187
   52        1.274   1.001   9.978  12.252
   53        1.312   0.920   9.975  12.207
   54        1.295   0.931   9.975  12.200
   55        1.305   0.917   9.977  12.199
   56        1.319   0.867   9.973  12.159
   57        1.308   0.911   9.970  12.189
   58        1.315   0.902   9.970  12.187
   59        1.331   0.864   9.971  12.165
   60        1.299   0.930   9.971  12.201
   61        1.285   0.970   9.970  12.225
   62        1.293   0.947   9.976  12.216
   63        1.305   0.931   9.980  12.216
   64        1.313   0.902   9.977  12.193
   65        1.312   0.912   9.971  12.194
   66        1.296   0.919   9.969  12.184
   67        1.307   0.908   9.972  12.187
   68        1.307   0.916   9.972  12.195
   69        1.279   0.992   9.980  12.251
   70        1.318   0.886   9.973  12.177
   71        1.302   0.913   9.975  12.189
   72        1.315   0.907   9.973  12.195
   73        1.316   0.914   9.977  12.208
   74        1.311   0.915   9.976  12.202
   75        1.294   0.931   9.975  12.200
   76        1.290   0.943   9.976  12.209
   77        1.300   0.916   9.973  12.188
   78        1.296   0.929   9.975  12.199
   79        1.322   0.874   9.969  12.165
   80        1.305   0.934   9.973  12.212
   81        1.303   0.937   9.970  12.210
   82        1.286   0.974   9.982  12.242
   83        1.305   0.912   9.976  12.193
   84        1.318   0.879   9.974  12.172
   85        1.300   0.936   9.977  12.214
   86        1.309   0.924   9.976  12.210
   87        1.300   0.929   9.978  12.207
   88        1.298   0.932   9.985  12.215
   89        1.330   0.857   9.972  12.159
   90        1.300   0.922   9.980  12.202
   91        1.307   0.935   9.977  12.218
   92        1.281   0.978   9.974  12.234
   93        1.300   0.932   9.976  12.208
   94        1.313   0.897   9.978  12.188
   95        1.315   0.888   9.966  12.169
   96        1.298   0.952   9.978  12.229
   97        1.276   1.010   9.983  12.269
   98        1.306   0.906   9.969  12.181
   99        1.334   0.853   9.974  12.161
  100        1.320   0.882   9.972  12.174
  101        1.288   0.950   9.971  12.208
  102        1.294   0.938   9.979  12.212
  103        1.283   0.947   9.978  12.207
  104        1.298   0.946   9.968  12.211
  105        1.304   0.916   9.980  12.199
  106        1.314   0.904   9.974  12.192
  107        1.287   0.946   9.978  12.211
  108        1.301   0.926   9.971  12.198
  109        1.285   0.969   9.977  12.231
  110        1.310   0.908   9.972  12.190
  111        1.282   0.977   9.980  12.238
  112        1.288   0.964   9.972  12.225
  113        1.299   0.935   9.969  12.203
  114        1.279   0.962   9.972  12.212
  115        1.303   0.907   9.978  12.188
  116        1.281   0.986   9.973  12.239
  117        1.317   0.898   9.977  12.192
  118        1.325   0.864   9.979  12.169
  119        1.302   0.935   9.979  12.215
  120        1.310   0.911   9.971  12.193
  121        1.295   0.939   9.975  12.208
  122        1.296   0.954   9.973  12.224
  123        1.299   0.932   9.969  12.200
  124        1.287   0.951   9.970  12.208
  125        1.295   0.925   9.970  12.190
  126        1.303   0.916   9.971  12.190
  127        1.296   0.954   9.976  12.226
  128        1.327   0.877   9.975  12.178
  129        1.317   0.903   9.970  12.190
  130        1.289   0.951   9.971  12.211
  131        1.286   0.973   9.978  12.237
  132        1.290   0.957   9.982  12.229
  133        1.304   0.917   9.974  12.194
  134        1.311   0.893   9.972  12.176
  135        1.273   0.977   9.978  12.228
  136        1.265   1.015   9.978  12.257
  137        1.315   0.894   9.975  12.184
  138        1.311   0.904   9.972  12.187
  139        1.286   0.977   9.973  12.236
  140        1.312   0.905   9.975  12.193
  141        1.319   0.892   9.971  12.183
  142        1.305   0.926   9.974  12.205
  143        1.280   0.946   9.979  12.205
  144        1.289   0.954   9.971  12.213
  145        1.293   0.947   9.979  12.219
  146        1.328   0.865   9.975  12.167
  147        1.266   1.015   9.979  12.261
  148        1.327   0.863   9.974  12.163
  149        1.319   0.891   9.977  12.188
  150        1.303   0.906   9.973  12.182
  151        1.300   0.923   9.973  12.196
  152        1.317   0.891   9.971  12.179
  153        1.285   0.970   9.976  12.231
  154        1.300   0.933   9.978  12.210
  155        1.287   0.959   9.981  12.226
  156        1.299   0.934   9.976  12.209
  157        1.327   0.858   9.968  12.152
  158        1.303   0.916   9.977  12.196
  159        1.291   0.945   9.975  12.211
  160        1.307   0.930   9.977  12.215
  161        1.316   0.879   9.977  12.172
  162        1.292   0.947   9.970  12.209
  163        1.281   0.967   9.978  12.227
  164        1.287   0.956   9.980  12.223
  165        1.301   0.932   9.976  12.209
  166        1.288   0.959   9.982  12.229
  167        1.290   0.943   9.974  12.207
  168        1.282   0.972   9.976  12.230
  169        1.296   0.941   9.978  12.215
  170        1.321   0.876   9.972  12.169
  171        1.291   0.944   9.972  12.207
  172        1.287   0.967   9.968  12.222
  173        1.275   0.983   9.972  12.230
  174        1.281   0.976   9.971  12.227
  175        1.293   0.938   9.978  12.209
  176        1.268   1.013   9.978  12.259
  177        1.324   0.877   9.970  12.172
  178        1.288   0.940   9.971  12.199
  179        1.301   0.938   9.987  12.226
  180        1.300   0.908   9.973  12.181
  181        1.309   0.898   9.968  12.175
  182        1.306   0.912   9.976  12.193
  183        1.308   0.922   9.973  12.202
  184        1.278   0.976   9.974  12.229
  185        1.290   0.947   9.974  12.211
  186        1.315   0.898   9.973  12.187
  187        1.295   0.954   9.973  12.222
  188        1.318   0.888   9.974  12.180
  189        1.298   0.952   9.977  12.227
  190        1.284   0.963   9.967  12.214
  191        1.293   0.918   9.978  12.190
  192        1.289   0.950   9.974  12.213
  193        1.271   0.998   9.972  12.242
  194        1.275   1.000   9.974  12.249
  195        1.285   0.947   9.973  12.206
  196        1.287   0.954   9.975  12.216
  197        1.303   0.941   9.974  12.218
  198        1.315   0.883   9.964  12.162
  199        1.301   0.944   9.971  12.216
  200        1.311   0.910   9.976  12.197
  201        1.290   0.965   9.981  12.236
  202        1.290   0.946   9.971  12.207
  203        1.277   0.970   9.978  12.225
  204        1.311   0.917   9.978  12.205
  205        1.299   0.943   9.977  12.218
  206        1.298   0.947   9.973  12.218
  207        1.312   0.896   9.970  12.178
  208        1.302   0.895   9.967  12.165
  209        1.318   0.890   9.971  12.179
  210        1.274   0.989   9.981  12.244
  211        1.306   0.919   9.967  12.192
  212        1.305   0.925   9.972  12.202
  213        1.281   0.974   9.978  12.232
  214        1.329   0.867   9.973  12.168
  215        1.315   0.919   9.976  12.210
  216        1.300   0.914   9.975  12.189
--------------------------------------------------
tot        279.431 201.5802155.0672636.078
 

 total amount of memory used by VASP MPI-rank0    94833. kBytes
=======================================================================

   base      :      30000. kBytes
   nonl-proj :      12879. kBytes
   fftplans  :       6880. kBytes
   grid      :       7372. kBytes
   one-center:        108. kBytes
   HF        :        129. kBytes
   nonlr-proj:      21829. kBytes
   wavefun   :      15636. kBytes
 
  
  
 General timing and accounting informations for this job:
 ========================================================
  
                  Total CPU time used (sec):    24881.908
                            User time (sec):    20975.353
                          System time (sec):     3906.556
                         Elapsed time (sec):    26053.194
  
                   Maximum memory used (kb):      725696.
                   Average memory used (kb):           0.
  
                          Minor page faults:     13473957
                          Major page faults:          350
                 Voluntary context switches:     18175349
