  216  216    1    1
  0.2711404E+02  0.1810255E-08  0.1795540E-08  0.1802152E-08  0.5000000E-15
  1.000000000000000E-004
  CAR 
 GeSn_216                                
   3024      1   1820
 
  0.0000000E+00  0.0000000E+00  0.0000000E+00  0.1000000E+01
    1      -21.138585   1.000000
    2      -21.137740   1.000000
    3      -21.136247   1.000000
    4      -21.131987   1.000000
    5      -21.125956   1.000000
    6      -21.109714   1.000000
    7      -21.107742   1.000000
    8      -21.098935   1.000000
    9      -21.095986   1.000000
   10      -21.092725   1.000000
   11      -21.092392   1.000000
   12      -21.089719   1.000000
   13      -21.084442   1.000000
   14      -21.083548   1.000000
   15      -21.079797   1.000000
   16      -21.079339   1.000000
   17      -21.076505   1.000000
   18      -21.075790   1.000000
   19      -21.072213   1.000000
   20      -21.071173   1.000000
   21      -21.067097   1.000000
   22      -21.066744   1.000000
   23      -21.064664   1.000000
   24      -21.061227   1.000000
   25      -21.060874   1.000000
   26      -21.058332   1.000000
   27      -21.057676   1.000000
   28      -21.056128   1.000000
   29      -21.054718   1.000000
   30      -21.054207   1.000000
   31      -21.052160   1.000000
   32      -21.052014   1.000000
   33      -21.050982   1.000000
   34      -21.049910   1.000000
   35      -21.048440   1.000000
   36      -21.044278   1.000000
   37      -21.044269   1.000000
   38      -21.041839   1.000000
   39      -21.040201   1.000000
   40      -21.038866   1.000000
   41      -21.037726   1.000000
   42      -21.033806   1.000000
   43      -21.033080   1.000000
   44      -21.032389   1.000000
   45      -21.031287   1.000000
   46      -21.029803   1.000000
   47      -21.028724   1.000000
   48      -21.025677   1.000000
   49      -21.024194   1.000000
   50      -21.019129   1.000000
   51      -21.018428   1.000000
   52      -21.017478   1.000000
   53      -21.015520   1.000000
   54      -21.015318   1.000000
   55      -21.013293   1.000000
   56      -21.010978   1.000000
   57      -21.010654   1.000000
   58      -21.010126   1.000000
   59      -21.009733   1.000000
   60      -21.008517   1.000000
   61      -21.007580   1.000000
   62      -21.006068   1.000000
   63      -21.004209   1.000000
   64      -21.004081   1.000000
   65      -21.003519   1.000000
   66      -21.003310   1.000000
   67      -21.001406   1.000000
   68      -21.000333   1.000000
   69      -20.999115   1.000000
   70      -20.997615   1.000000
   71      -20.994962   1.000000
   72      -20.993360   1.000000
   73      -20.991949   1.000000
   74      -20.990957   1.000000
   75      -20.987291   1.000000
   76      -20.986835   1.000000
   77      -20.986702   1.000000
   78      -20.984525   1.000000
   79      -20.983723   1.000000
   80      -20.982420   1.000000
   81      -20.981501   1.000000
   82      -20.979451   1.000000
   83      -20.979349   1.000000
   84      -20.978938   1.000000
   85      -20.976889   1.000000
   86      -20.975908   1.000000
   87      -20.974642   1.000000
   88      -20.974353   1.000000
   89      -20.973739   1.000000
   90      -20.973276   1.000000
   91      -20.971045   1.000000
   92      -20.970872   1.000000
   93      -20.969571   1.000000
   94      -20.969137   1.000000
   95      -20.968644   1.000000
   96      -20.967489   1.000000
   97      -20.964996   1.000000
   98      -20.963864   1.000000
   99      -20.963356   1.000000
  100      -20.962837   1.000000
  101      -20.960391   1.000000
  102      -20.959369   1.000000
  103      -20.957197   1.000000
  104      -20.957173   1.000000
  105      -20.956521   1.000000
  106      -20.955171   1.000000
  107      -20.954624   1.000000
  108      -20.954414   1.000000
  109      -20.953972   1.000000
  110      -20.953889   1.000000
  111      -20.951859   1.000000
  112      -20.950886   1.000000
  113      -20.950085   1.000000
  114      -20.948700   1.000000
  115      -20.947483   1.000000
  116      -20.946724   1.000000
  117      -20.946589   1.000000
  118      -20.946262   1.000000
  119      -20.944561   1.000000
  120      -20.944000   1.000000
  121      -20.943562   1.000000
  122      -20.942533   1.000000
  123      -20.942527   1.000000
  124      -20.941989   1.000000
  125      -20.941519   1.000000
  126      -20.941236   1.000000
  127      -20.940256   1.000000
  128      -20.939692   1.000000
  129      -20.939357   1.000000
  130      -20.938744   1.000000
  131      -20.937904   1.000000
  132      -20.937649   1.000000
  133      -20.936941   1.000000
  134      -20.936537   1.000000
  135      -20.936188   1.000000
  136      -20.934178   1.000000
  137      -20.933443   1.000000
  138      -20.932010   1.000000
  139      -20.931717   1.000000
  140      -20.931197   1.000000
  141      -20.930193   1.000000
  142      -20.929957   1.000000
  143      -20.929770   1.000000
  144      -20.929766   1.000000
  145      -20.929387   1.000000
  146      -20.929232   1.000000
  147      -20.928391   1.000000
  148      -20.927981   1.000000
  149      -20.927941   1.000000
  150      -20.927531   1.000000
  151      -20.927001   1.000000
  152      -20.926599   1.000000
  153      -20.926247   1.000000
  154      -20.926084   1.000000
  155      -20.925162   1.000000
  156      -20.924219   1.000000
  157      -20.924200   1.000000
  158      -20.922995   1.000000
  159      -20.920430   1.000000
  160      -20.918823   1.000000
  161      -20.917933   1.000000
  162      -20.917886   1.000000
  163      -20.917404   1.000000
  164      -20.917380   1.000000
  165      -20.916434   1.000000
  166      -20.916263   1.000000
  167      -20.915962   1.000000
  168      -20.914271   1.000000
  169      -20.913426   1.000000
  170      -20.913205   1.000000
  171      -20.912513   1.000000
  172      -20.911352   1.000000
  173      -20.911285   1.000000
  174      -20.911233   1.000000
  175      -20.908902   1.000000
  176      -20.906416   1.000000
  177      -20.906396   1.000000
  178      -20.905860   1.000000
  179      -20.904093   1.000000
  180      -20.901721   1.000000
  181      -20.901075   1.000000
  182      -20.900025   1.000000
  183      -20.899604   1.000000
  184      -20.899463   1.000000
  185      -20.898409   1.000000
  186      -20.897914   1.000000
  187      -20.895798   1.000000
  188      -20.895407   1.000000
  189      -20.893612   1.000000
  190      -20.892735   1.000000
  191      -20.888971   1.000000
  192      -20.888571   1.000000
  193      -20.887534   1.000000
  194      -20.887169   1.000000
  195      -20.885733   1.000000
  196      -20.884911   1.000000
  197      -20.884561   1.000000
  198      -20.882932   1.000000
  199      -20.880129   1.000000
  200      -20.879905   1.000000
  201      -20.878707   1.000000
  202      -20.873020   1.000000
  203      -20.864042   1.000000
  204      -20.859875   1.000000
  205      -20.853560   1.000000
  206      -20.853050   1.000000
  207      -20.848604   1.000000
  208      -20.847881   1.000000
  209      -20.845693   1.000000
  210      -20.843745   1.000000
  211      -20.841090   1.000000
  212      -20.839655   1.000000
  213      -20.838021   1.000000
  214      -20.834244   1.000000
  215      -20.817355   1.000000
  216      -16.950137   1.000000
  217      -16.934923   1.000000
  218      -16.931136   1.000000
  219      -16.925138   1.000000
  220      -16.922626   1.000000
  221      -16.920036   1.000000
  222      -16.916937   1.000000
  223      -16.916684   1.000000
  224      -16.912668   1.000000
  225      -16.912153   1.000000
  226      -16.908479   1.000000
  227      -16.907979   1.000000
  228      -16.906235   1.000000
  229      -16.905279   1.000000
  230      -16.902396   1.000000
  231      -16.901098   1.000000
  232      -16.898888   1.000000
  233      -16.898445   1.000000
  234      -16.897210   1.000000
  235      -16.894534   1.000000
  236      -16.894177   1.000000
  237      -16.891877   1.000000
  238      -16.891339   1.000000
  239      -16.889076   1.000000
  240      -16.886991   1.000000
  241      -16.886816   1.000000
  242      -16.886172   1.000000
  243      -16.885645   1.000000
  244      -16.884714   1.000000
  245      -16.883653   1.000000
  246      -16.882068   1.000000
  247      -16.881925   1.000000
  248      -16.880885   1.000000
  249      -16.880384   1.000000
  250      -16.879772   1.000000
  251      -16.877864   1.000000
  252      -16.877329   1.000000
  253      -16.876829   1.000000
  254      -16.876378   1.000000
  255      -16.875778   1.000000
  256      -16.875464   1.000000
  257      -16.874962   1.000000
  258      -16.874235   1.000000
  259      -16.873325   1.000000
  260      -16.870212   1.000000
  261      -16.870074   1.000000
  262      -16.868534   1.000000
  263      -16.868298   1.000000
  264      -16.867105   1.000000
  265      -16.866604   1.000000
  266      -16.865892   1.000000
  267      -16.865434   1.000000
  268      -16.864400   1.000000
  269      -16.864085   1.000000
  270      -16.863511   1.000000
  271      -16.863188   1.000000
  272      -16.862109   1.000000
  273      -16.860962   1.000000
  274      -16.860518   1.000000
  275      -16.859947   1.000000
  276      -16.858365   1.000000
  277      -16.857702   1.000000
  278      -16.856804   1.000000
  279      -16.856504   1.000000
  280      -16.855237   1.000000
  281      -16.854904   1.000000
  282      -16.854159   1.000000
  283      -16.853855   1.000000
  284      -16.853505   1.000000
  285      -16.852678   1.000000
  286      -16.852167   1.000000
  287      -16.851292   1.000000
  288      -16.850358   1.000000
  289      -16.849780   1.000000
  290      -16.849119   1.000000
  291      -16.848192   1.000000
  292      -16.847943   1.000000
  293      -16.847066   1.000000
  294      -16.846654   1.000000
  295      -16.846087   1.000000
  296      -16.845279   1.000000
  297      -16.844615   1.000000
  298      -16.844219   1.000000
  299      -16.843270   1.000000
  300      -16.842861   1.000000
  301      -16.842738   1.000000
  302      -16.842164   1.000000
  303      -16.841394   1.000000
  304      -16.840306   1.000000
  305      -16.839836   1.000000
  306      -16.839606   1.000000
  307      -16.839317   1.000000
  308      -16.838718   1.000000
  309      -16.838153   1.000000
  310      -16.837637   1.000000
  311      -16.837117   1.000000
  312      -16.836888   1.000000
  313      -16.836617   1.000000
  314      -16.836390   1.000000
  315      -16.835650   1.000000
  316      -16.834775   1.000000
  317      -16.834174   1.000000
  318      -16.833823   1.000000
  319      -16.833363   1.000000
  320      -16.833016   1.000000
  321      -16.832479   1.000000
  322      -16.831891   1.000000
  323      -16.831080   1.000000
  324      -16.830849   1.000000
  325      -16.830500   1.000000
  326      -16.830088   1.000000
  327      -16.828944   1.000000
  328      -16.828890   1.000000
  329      -16.828086   1.000000
  330      -16.827629   1.000000
  331      -16.827421   1.000000
  332      -16.826697   1.000000
  333      -16.826268   1.000000
  334      -16.825762   1.000000
  335      -16.825412   1.000000
  336      -16.825079   1.000000
  337      -16.824503   1.000000
  338      -16.823274   1.000000
  339      -16.823221   1.000000
  340      -16.823045   1.000000
  341      -16.822258   1.000000
  342      -16.821953   1.000000
  343      -16.821742   1.000000
  344      -16.821221   1.000000
  345      -16.820369   1.000000
  346      -16.819813   1.000000
  347      -16.819329   1.000000
  348      -16.818735   1.000000
  349      -16.818619   1.000000
  350      -16.817681   1.000000
  351      -16.817282   1.000000
  352      -16.816890   1.000000
  353      -16.816129   1.000000
  354      -16.815823   1.000000
  355      -16.815256   1.000000
  356      -16.814998   1.000000
  357      -16.814622   1.000000
  358      -16.814089   1.000000
  359      -16.813279   1.000000
  360      -16.812510   1.000000
  361      -16.812399   1.000000
  362      -16.811954   1.000000
  363      -16.811501   1.000000
  364      -16.810995   1.000000
  365      -16.810686   1.000000
  366      -16.810246   1.000000
  367      -16.809799   1.000000
  368      -16.809248   1.000000
  369      -16.808992   1.000000
  370      -16.808706   1.000000
  371      -16.808617   1.000000
  372      -16.808045   1.000000
  373      -16.807774   1.000000
  374      -16.806858   1.000000
  375      -16.806698   1.000000
  376      -16.806326   1.000000
  377      -16.806057   1.000000
  378      -16.805766   1.000000
  379      -16.805221   1.000000
  380      -16.804782   1.000000
  381      -16.804489   1.000000
  382      -16.804348   1.000000
  383      -16.804097   1.000000
  384      -16.803375   1.000000
  385      -16.803185   1.000000
  386      -16.802720   1.000000
  387      -16.802477   1.000000
  388      -16.801607   1.000000
  389      -16.801159   1.000000
  390      -16.800871   1.000000
  391      -16.800602   1.000000
  392      -16.799653   1.000000
  393      -16.799289   1.000000
  394      -16.798753   1.000000
  395      -16.798607   1.000000
  396      -16.798232   1.000000
  397      -16.797680   1.000000
  398      -16.796755   1.000000
  399      -16.796520   1.000000
  400      -16.795806   1.000000
  401      -16.795627   1.000000
  402      -16.795290   1.000000
  403      -16.795097   1.000000
  404      -16.794707   1.000000
  405      -16.794490   1.000000
  406      -16.794125   1.000000
  407      -16.793483   1.000000
  408      -16.793198   1.000000
  409      -16.793008   1.000000
  410      -16.792218   1.000000
  411      -16.792019   1.000000
  412      -16.791424   1.000000
  413      -16.790996   1.000000
  414      -16.790445   1.000000
  415      -16.790204   1.000000
  416      -16.789695   1.000000
  417      -16.789483   1.000000
  418      -16.789186   1.000000
  419      -16.788724   1.000000
  420      -16.788196   1.000000
  421      -16.787711   1.000000
  422      -16.787497   1.000000
  423      -16.786996   1.000000
  424      -16.786781   1.000000
  425      -16.786273   1.000000
  426      -16.785532   1.000000
  427      -16.785288   1.000000
  428      -16.785024   1.000000
  429      -16.784908   1.000000
  430      -16.784493   1.000000
  431      -16.783899   1.000000
  432      -16.783121   1.000000
  433      -16.782939   1.000000
  434      -16.782489   1.000000
  435      -16.782006   1.000000
  436      -16.781830   1.000000
  437      -16.781186   1.000000
  438      -16.780417   1.000000
  439      -16.780360   1.000000
  440      -16.779801   1.000000
  441      -16.779487   1.000000
  442      -16.779008   1.000000
  443      -16.778787   1.000000
  444      -16.778369   1.000000
  445      -16.778032   1.000000
  446      -16.777773   1.000000
  447      -16.777532   1.000000
  448      -16.776762   1.000000
  449      -16.776300   1.000000
  450      -16.776137   1.000000
  451      -16.775861   1.000000
  452      -16.775612   1.000000
  453      -16.774997   1.000000
  454      -16.774745   1.000000
  455      -16.774576   1.000000
  456      -16.774357   1.000000
  457      -16.773978   1.000000
  458      -16.773525   1.000000
  459      -16.772956   1.000000
  460      -16.772763   1.000000
  461      -16.772706   1.000000
  462      -16.772061   1.000000
  463      -16.771992   1.000000
  464      -16.771595   1.000000
  465      -16.770716   1.000000
  466      -16.770499   1.000000
  467      -16.769911   1.000000
  468      -16.769521   1.000000
  469      -16.769171   1.000000
  470      -16.768942   1.000000
  471      -16.768402   1.000000
  472      -16.768183   1.000000
  473      -16.767802   1.000000
  474      -16.767650   1.000000
  475      -16.767200   1.000000
  476      -16.766982   1.000000
  477      -16.766738   1.000000
  478      -16.766710   1.000000
  479      -16.766248   1.000000
  480      -16.766061   1.000000
  481      -16.765706   1.000000
  482      -16.765329   1.000000
  483      -16.764634   1.000000
  484      -16.764359   1.000000
  485      -16.764074   1.000000
  486      -16.763233   1.000000
  487      -16.763148   1.000000
  488      -16.762900   1.000000
  489      -16.762674   1.000000
  490      -16.762346   1.000000
  491      -16.762154   1.000000
  492      -16.761512   1.000000
  493      -16.761160   1.000000
  494      -16.760702   1.000000
  495      -16.760452   1.000000
  496      -16.760002   1.000000
  497      -16.759806   1.000000
  498      -16.759431   1.000000
  499      -16.759293   1.000000
  500      -16.758766   1.000000
  501      -16.758528   1.000000
  502      -16.758191   1.000000
  503      -16.757705   1.000000
  504      -16.757450   1.000000
  505      -16.756812   1.000000
  506      -16.756362   1.000000
  507      -16.756078   1.000000
  508      -16.755744   1.000000
  509      -16.755483   1.000000
  510      -16.755398   1.000000
  511      -16.755167   1.000000
  512      -16.754984   1.000000
  513      -16.753999   1.000000
  514      -16.753598   1.000000
  515      -16.753294   1.000000
  516      -16.753104   1.000000
  517      -16.752667   1.000000
  518      -16.752550   1.000000
  519      -16.751981   1.000000
  520      -16.751482   1.000000
  521      -16.751227   1.000000
  522      -16.750982   1.000000
  523      -16.750431   1.000000
  524      -16.750272   1.000000
  525      -16.750041   1.000000
  526      -16.749724   1.000000
  527      -16.749382   1.000000
  528      -16.748858   1.000000
  529      -16.748446   1.000000
  530      -16.747898   1.000000
  531      -16.747842   1.000000
  532      -16.747787   1.000000
  533      -16.747198   1.000000
  534      -16.746834   1.000000
  535      -16.746688   1.000000
  536      -16.746197   1.000000
  537      -16.745928   1.000000
  538      -16.745378   1.000000
  539      -16.745040   1.000000
  540      -16.744754   1.000000
  541      -16.744234   1.000000
  542      -16.743794   1.000000
  543      -16.743669   1.000000
  544      -16.743534   1.000000
  545      -16.743039   1.000000
  546      -16.742550   1.000000
  547      -16.742209   1.000000
  548      -16.742124   1.000000
  549      -16.741647   1.000000
  550      -16.741388   1.000000
  551      -16.740410   1.000000
  552      -16.740337   1.000000
  553      -16.739955   1.000000
  554      -16.739442   1.000000
  555      -16.739397   1.000000
  556      -16.739179   1.000000
  557      -16.738686   1.000000
  558      -16.738158   1.000000
  559      -16.737865   1.000000
  560      -16.737608   1.000000
  561      -16.737310   1.000000
  562      -16.737096   1.000000
  563      -16.736746   1.000000
  564      -16.736296   1.000000
  565      -16.736038   1.000000
  566      -16.735822   1.000000
  567      -16.735160   1.000000
  568      -16.734708   1.000000
  569      -16.734592   1.000000
  570      -16.734301   1.000000
  571      -16.734004   1.000000
  572      -16.733556   1.000000
  573      -16.733131   1.000000
  574      -16.732963   1.000000
  575      -16.732806   1.000000
  576      -16.732144   1.000000
  577      -16.731873   1.000000
  578      -16.731347   1.000000
  579      -16.731056   1.000000
  580      -16.730881   1.000000
  581      -16.730764   1.000000
  582      -16.730319   1.000000
  583      -16.729834   1.000000
  584      -16.729488   1.000000
  585      -16.729017   1.000000
  586      -16.728709   1.000000
  587      -16.728532   1.000000
  588      -16.728130   1.000000
  589      -16.727601   1.000000
  590      -16.727481   1.000000
  591      -16.726642   1.000000
  592      -16.726410   1.000000
  593      -16.725951   1.000000
  594      -16.725585   1.000000
  595      -16.725252   1.000000
  596      -16.724974   1.000000
  597      -16.724378   1.000000
  598      -16.724185   1.000000
  599      -16.724042   1.000000
  600      -16.723859   1.000000
  601      -16.723503   1.000000
  602      -16.722824   1.000000
  603      -16.722653   1.000000
  604      -16.722412   1.000000
  605      -16.722188   1.000000
  606      -16.721908   1.000000
  607      -16.721458   1.000000
  608      -16.721204   1.000000
  609      -16.721091   1.000000
  610      -16.720825   1.000000
  611      -16.720224   1.000000
  612      -16.720086   1.000000
  613      -16.719924   1.000000
  614      -16.719452   1.000000
  615      -16.719139   1.000000
  616      -16.718845   1.000000
  617      -16.718724   1.000000
  618      -16.718043   1.000000
  619      -16.717829   1.000000
  620      -16.717590   1.000000
  621      -16.717170   1.000000
  622      -16.716895   1.000000
  623      -16.716480   1.000000
  624      -16.715972   1.000000
  625      -16.715701   1.000000
  626      -16.715175   1.000000
  627      -16.715125   1.000000
  628      -16.714538   1.000000
  629      -16.714414   1.000000
  630      -16.714057   1.000000
  631      -16.713921   1.000000
  632      -16.713667   1.000000
  633      -16.713359   1.000000
  634      -16.712763   1.000000
  635      -16.712704   1.000000
  636      -16.712290   1.000000
  637      -16.712065   1.000000
  638      -16.712000   1.000000
  639      -16.711857   1.000000
  640      -16.711346   1.000000
  641      -16.710758   1.000000
  642      -16.710592   1.000000
  643      -16.710128   1.000000
  644      -16.709433   1.000000
  645      -16.709365   1.000000
  646      -16.708928   1.000000
  647      -16.708688   1.000000
  648      -16.708438   1.000000
  649      -16.707914   1.000000
  650      -16.707499   1.000000
  651      -16.707331   1.000000
  652      -16.706880   1.000000
  653      -16.706466   1.000000
  654      -16.706306   1.000000
  655      -16.706171   1.000000
  656      -16.705545   1.000000
  657      -16.705251   1.000000
  658      -16.705128   1.000000
  659      -16.704681   1.000000
  660      -16.704443   1.000000
  661      -16.704058   1.000000
  662      -16.703780   1.000000
  663      -16.703710   1.000000
  664      -16.703368   1.000000
  665      -16.702752   1.000000
  666      -16.702163   1.000000
  667      -16.701970   1.000000
  668      -16.701261   1.000000
  669      -16.701042   1.000000
  670      -16.700686   1.000000
  671      -16.700363   1.000000
  672      -16.700116   1.000000
  673      -16.699447   1.000000
  674      -16.699007   1.000000
  675      -16.698846   1.000000
  676      -16.698399   1.000000
  677      -16.698050   1.000000
  678      -16.697725   1.000000
  679      -16.697335   1.000000
  680      -16.696871   1.000000
  681      -16.696737   1.000000
  682      -16.695927   1.000000
  683      -16.695812   1.000000
  684      -16.695569   1.000000
  685      -16.695247   1.000000
  686      -16.694685   1.000000
  687      -16.694445   1.000000
  688      -16.694227   1.000000
  689      -16.693882   1.000000
  690      -16.693428   1.000000
  691      -16.693089   1.000000
  692      -16.692686   1.000000
  693      -16.692311   1.000000
  694      -16.691993   1.000000
  695      -16.691741   1.000000
  696      -16.691535   1.000000
  697      -16.691068   1.000000
  698      -16.690291   1.000000
  699      -16.689783   1.000000
  700      -16.689435   1.000000
  701      -16.689013   1.000000
  702      -16.688667   1.000000
  703      -16.688347   1.000000
  704      -16.688064   1.000000
  705      -16.687640   1.000000
  706      -16.687407   1.000000
  707      -16.687036   1.000000
  708      -16.686730   1.000000
  709      -16.686238   1.000000
  710      -16.685955   1.000000
  711      -16.685773   1.000000
  712      -16.685307   1.000000
  713      -16.684939   1.000000
  714      -16.684546   1.000000
  715      -16.684115   1.000000
  716      -16.683865   1.000000
  717      -16.683475   1.000000
  718      -16.683178   1.000000
  719      -16.683100   1.000000
  720      -16.682350   1.000000
  721      -16.682170   1.000000
  722      -16.681788   1.000000
  723      -16.681605   1.000000
  724      -16.681219   1.000000
  725      -16.680735   1.000000
  726      -16.680357   1.000000
  727      -16.680136   1.000000
  728      -16.679934   1.000000
  729      -16.679856   1.000000
  730      -16.679269   1.000000
  731      -16.678282   1.000000
  732      -16.678036   1.000000
  733      -16.677861   1.000000
  734      -16.677408   1.000000
  735      -16.676919   1.000000
  736      -16.676771   1.000000
  737      -16.676410   1.000000
  738      -16.675858   1.000000
  739      -16.675653   1.000000
  740      -16.675278   1.000000
  741      -16.675147   1.000000
  742      -16.674255   1.000000
  743      -16.673809   1.000000
  744      -16.673619   1.000000
  745      -16.673569   1.000000
  746      -16.672988   1.000000
  747      -16.672270   1.000000
  748      -16.671377   1.000000
  749      -16.671064   1.000000
  750      -16.670782   1.000000
  751      -16.670667   1.000000
  752      -16.670306   1.000000
  753      -16.670238   1.000000
  754      -16.669570   1.000000
  755      -16.669103   1.000000
  756      -16.668898   1.000000
  757      -16.668627   1.000000
  758      -16.668034   1.000000
  759      -16.667661   1.000000
  760      -16.667431   1.000000
  761      -16.667269   1.000000
  762      -16.666816   1.000000
  763      -16.666146   1.000000
  764      -16.665994   1.000000
  765      -16.665457   1.000000
  766      -16.665109   1.000000
  767      -16.664871   1.000000
  768      -16.664368   1.000000
  769      -16.663837   1.000000
  770      -16.663522   1.000000
  771      -16.663180   1.000000
  772      -16.662899   1.000000
  773      -16.662599   1.000000
  774      -16.662286   1.000000
  775      -16.661690   1.000000
  776      -16.661552   1.000000
  777      -16.660880   1.000000
  778      -16.660607   1.000000
  779      -16.659962   1.000000
  780      -16.659730   1.000000
  781      -16.659329   1.000000
  782      -16.659067   1.000000
  783      -16.658738   1.000000
  784      -16.658235   1.000000
  785      -16.657833   1.000000
  786      -16.657411   1.000000
  787      -16.657047   1.000000
  788      -16.656842   1.000000
  789      -16.656314   1.000000
  790      -16.655397   1.000000
  791      -16.654910   1.000000
  792      -16.654442   1.000000
  793      -16.654298   1.000000
  794      -16.654010   1.000000
  795      -16.653765   1.000000
  796      -16.653478   1.000000
  797      -16.653341   1.000000
  798      -16.653243   1.000000
  799      -16.652353   1.000000
  800      -16.652213   1.000000
  801      -16.651581   1.000000
  802      -16.651120   1.000000
  803      -16.650987   1.000000
  804      -16.650642   1.000000
  805      -16.650267   1.000000
  806      -16.649729   1.000000
  807      -16.649404   1.000000
  808      -16.649107   1.000000
  809      -16.648468   1.000000
  810      -16.648355   1.000000
  811      -16.647830   1.000000
  812      -16.647376   1.000000
  813      -16.647179   1.000000
  814      -16.646683   1.000000
  815      -16.646525   1.000000
  816      -16.645668   1.000000
  817      -16.645646   1.000000
  818      -16.645301   1.000000
  819      -16.644929   1.000000
  820      -16.644279   1.000000
  821      -16.644209   1.000000
  822      -16.643756   1.000000
  823      -16.643319   1.000000
  824      -16.642961   1.000000
  825      -16.642375   1.000000
  826      -16.642043   1.000000
  827      -16.641917   1.000000
  828      -16.641415   1.000000
  829      -16.641169   1.000000
  830      -16.641008   1.000000
  831      -16.640190   1.000000
  832      -16.639674   1.000000
  833      -16.639482   1.000000
  834      -16.639119   1.000000
  835      -16.638966   1.000000
  836      -16.638145   1.000000
  837      -16.637879   1.000000
  838      -16.637611   1.000000
  839      -16.637339   1.000000
  840      -16.636930   1.000000
  841      -16.636639   1.000000
  842      -16.636566   1.000000
  843      -16.636411   1.000000
  844      -16.635564   1.000000
  845      -16.635196   1.000000
  846      -16.634941   1.000000
  847      -16.634599   1.000000
  848      -16.634215   1.000000
  849      -16.633892   1.000000
  850      -16.633564   1.000000
  851      -16.633025   1.000000
  852      -16.632660   1.000000
  853      -16.632404   1.000000
  854      -16.631983   1.000000
  855      -16.631728   1.000000
  856      -16.630998   1.000000
  857      -16.630530   1.000000
  858      -16.630154   1.000000
  859      -16.629960   1.000000
  860      -16.629851   1.000000
  861      -16.629274   1.000000
  862      -16.629034   1.000000
  863      -16.628360   1.000000
  864      -16.628253   1.000000
  865      -16.627996   1.000000
  866      -16.627421   1.000000
  867      -16.626754   1.000000
  868      -16.626568   1.000000
  869      -16.625950   1.000000
  870      -16.625670   1.000000
  871      -16.625365   1.000000
  872      -16.625061   1.000000
  873      -16.624634   1.000000
  874      -16.624504   1.000000
  875      -16.623636   1.000000
  876      -16.623299   1.000000
  877      -16.622965   1.000000
  878      -16.622369   1.000000
  879      -16.622111   1.000000
  880      -16.621911   1.000000
  881      -16.621679   1.000000
  882      -16.621587   1.000000
  883      -16.621183   1.000000
  884      -16.620902   1.000000
  885      -16.620535   1.000000
  886      -16.619989   1.000000
  887      -16.619521   1.000000
  888      -16.618807   1.000000
  889      -16.618437   1.000000
  890      -16.618397   1.000000
  891      -16.617633   1.000000
  892      -16.617387   1.000000
  893      -16.616573   1.000000
  894      -16.616300   1.000000
  895      -16.615754   1.000000
  896      -16.615310   1.000000
  897      -16.614779   1.000000
  898      -16.614565   1.000000
  899      -16.614095   1.000000
  900      -16.613742   1.000000
  901      -16.613092   1.000000