 vasp.5.4.4.18Apr17-6-g9f103f2a35 (build Jul 27 2025 00:00:01) complex          
  
 executed on             LinuxIFC date 2026.06.14  12:53:24
 running on  640 total cores
 distrk:  each k-point on  640 cores,    1 groups
 distr:  one band on NCORES_PER_BAND=  32 cores,   20 groups


--------------------------------------------------------------------------------------------------------


 INCAR:
 POTCAR:    PAW_PBE Ge_d 03Jul2007                
 POTCAR:    PAW_PBE Sn_d 06Sep2000                
 POTCAR:    PAW_PBE Ge_d 03Jul2007                
   VRHFIN =Ge: 3d4s4p                                                           
   LEXCH  = PE                                                                  
   EATOM  =  2596.2402 eV,  190.8183 Ry                                         
                                                                                
   TITEL  = PAW_PBE Ge_d 03Jul2007                                              
   LULTRA =        F    use ultrasoft PP ?                                      
   IUNSCR =        1    unscreen: 0-lin 1-nonlin 2-no                           
   RPACOR =    2.000    partial core radius                                     
   POMASS =   72.610; ZVAL   =   14.000    mass and valenz                      
   RCORE  =    2.300    outmost cutoff radius                                   
   RWIGS  =    2.300; RWIGS  =    1.217    wigner-seitz radius (au A)           
   ENMAX  =  310.294; ENMIN  =  232.720 eV                                      
   ICORE  =        3    local potential                                         
   LCOR   =        T    correct aug charges                                     
   LPAW   =        T    paw PP                                                  
   EAUG   =  531.356                                                            
   DEXC   =    0.000                                                            
   RMAX   =    2.342    core radius for proj-oper                               
   RAUG   =    1.300    factor for augmentation sphere                          
   RDEP   =    2.318    radius for radial grids                                 
   RDEPT  =    1.783    core radius for aug-charge                              
                                                                                
   Atomic configuration                                                         
    9 entries                                                                   
     n  l   j            E        occ.                                          
     1  0  0.50    -10959.8463   2.0000                                         
     2  0  0.50     -1371.6056   2.0000                                         
     2  1  1.50     -1198.4791   6.0000                                         
     3  0  0.50      -168.4733   2.0000                                         
     3  1  1.50      -115.6019   6.0000                                         
     3  2  2.50       -29.3106  10.0000                                         
     4  0  0.50       -11.7309   2.0000                                         
     4  1  0.50        -3.8952   2.0000                                         
     4  3  2.50        -4.0817   0.0000                                         
   Description                                                                  
     l       E           TYP  RCUT    TYP  RCUT                                 
     2    -29.3105938     23  2.200                                             
     2    -13.6058260     23  2.200                                             
     0    -11.7309493     23  2.300                                             
     0     -7.4578696     23  2.300                                             
     1     -3.8952261     23  2.300                                             
     1      6.1178114     23  2.300                                             
     3     -1.3605826     23  2.300                                             
  local pseudopotential read in
  partial core-charges read in
  partial kinetic energy density read in
  atomic valenz-charges read in
  non local Contribution for L=           2  read in
    real space projection operators read in
  non local Contribution for L=           2  read in
    real space projection operators read in
  non local Contribution for L=           0  read in
    real space projection operators read in
  non local Contribution for L=           0  read in
    real space projection operators read in
  non local Contribution for L=           1  read in
    real space projection operators read in
  non local Contribution for L=           1  read in
    real space projection operators read in
    PAW grid and wavefunctions read in
 
   number of l-projection  operators is LMAX  =           6
   number of lm-projection operators is LMMAX =          18
 
 POTCAR:    PAW_PBE Sn_d 06Sep2000                
   VRHFIN =Sn: s2p2                                                             
   LEXCH  = PE                                                                  
   EATOM  =  1893.1092 eV,  139.1396 Ry                                         
                                                                                
   TITEL  = PAW_PBE Sn_d 06Sep2000                                              
   LULTRA =        F    use ultrasoft PP ?                                      
   IUNSCR =        1    unscreen: 0-lin 1-nonlin 2-no                           
   RPACOR =    2.300    partial core radius                                     
   POMASS =  118.710; ZVAL   =   14.000    mass and valenz                      
   RCORE  =    2.500    outmost cutoff radius                                   
   RWIGS  =    2.960; RWIGS  =    1.566    wigner-seitz radius (au A)           
   ENMAX  =  241.083; ENMIN  =  180.812 eV                                      
   ICORE  =        3    local potential                                         
   LCOR   =        T    correct aug charges                                     
   LPAW   =        T    paw PP                                                  
   EAUG   =  439.825                                                            
   DEXC   =    0.000                                                            
   RMAX   =    2.560    core radius for proj-oper                               
   RAUG   =    1.300    factor for augmentation sphere                          
   RDEP   =    2.659    radius for radial grids                                 
   RDEPT  =    2.046    core radius for aug-charge                              
                                                                                
   Atomic configuration                                                         
   12 entries                                                                   
     n  l   j            E        occ.                                          
     1  0  0.50    -29007.2859   2.0000                                         
     2  0  0.50     -4378.8056   2.0000                                         
     2  1  1.50     -3930.4293   6.0000                                         
     3  0  0.50      -845.0264   2.0000                                         
     3  1  1.50      -698.5725   6.0000                                         
     3  2  2.50      -473.2839  10.0000                                         
     4  0  0.50      -133.9036   2.0000                                         
     4  1  1.50       -89.6752   6.0000                                         
     4  2  2.50       -25.8375  10.0000                                         
     5  0  0.50       -10.5484   2.0000                                         
     5  1  0.50        -3.6940   2.0000                                         
     4  3  2.50        -2.7416   0.0000                                         
   Description                                                                  
     l       E           TYP  RCUT    TYP  RCUT                                 
     2    -25.8374624     23  2.500                                             
     2     -5.4423304     23  2.500                                             
     0    -10.5483727     23  2.500                                             
     0     13.6058260     23  2.500                                             
     1     -3.6939829     23  2.500                                             
     1      1.9821976     23  2.500                                             
     3     -1.3605826      7  2.500                                             
  local pseudopotential read in
  partial core-charges read in
  partial kinetic energy density read in
  atomic valenz-charges read in
  non local Contribution for L=           2  read in
    real space projection operators read in
  non local Contribution for L=           2  read in
    real space projection operators read in
  non local Contribution for L=           0  read in
    real space projection operators read in
  non local Contribution for L=           0  read in
    real space projection operators read in
  non local Contribution for L=           1  read in
    real space projection operators read in
  non local Contribution for L=           1  read in
    real space projection operators read in
    PAW grid and wavefunctions read in
 
   number of l-projection  operators is LMAX  =           6
   number of lm-projection operators is LMMAX =          18
 

 ----------------------------------------------------------------------------- 
|                                                                             |
|  ADVICE TO THIS USER RUNNING 'VASP/VAMP'   (HEAR YOUR MASTER'S VOICE ...):  |
|                                                                             |
|      You have a (more or less) 'large supercell' and for larger cells       |
|      it might be more efficient to use real space projection opertators     |
|      So try LREAL= Auto  in the INCAR   file.                               |
|      Mind:          For very  accurate calculation you might also keep the  |
|      reciprocal projection scheme          (i.e. LREAL=.FALSE.)             |
|                                                                             |
 ----------------------------------------------------------------------------- 

  PAW_PBE Ge_d 03Jul2007                :
 energy of atom  1       EATOM=-2596.2402
 kinetic energy error for atom=    0.0173 (will be added to EATOM!!)
  PAW_PBE Sn_d 06Sep2000                :
 energy of atom  2       EATOM=-1893.1092
 kinetic energy error for atom=    0.0047 (will be added to EATOM!!)
 
 
 POSCAR: Ge43Sn173 random alloy generated from Ge
  positions in direct lattice
  velocities in cartesian coordinates
 exchange correlation table for  LEXCH =        8
   RHO(1)=    0.500       N(1)  =     2000
   RHO(2)=  100.500       N(2)  =     4000
 


--------------------------------------------------------------------------------------------------------


 ion  position               nearest neighbor table
   1  0.863  0.079  0.261-  33 2.68  14 2.78 168 2.83  69 2.99  73 3.09 172 3.14
   2  0.910  0.204  0.042- 168 2.90 138 2.93 101 2.95 197 2.95 104 2.96 156 3.02
   3  0.947  0.932  0.449-  14 2.58   7 2.66 178 2.82 185 2.90  74 2.98 154 3.31
   4  0.840  0.658  0.683-  32 2.65  53 2.81 181 2.90  78 2.96  51 2.98
   5  0.071  0.595  0.124-  18 2.64  20 2.70  61 2.87  50 2.94  83 2.96 110 3.02
   6  0.815  0.201  0.594- 100 2.88 165 2.90 203 2.99 192 3.02  94 3.03  80 3.09  79 3.34
   7  0.973  0.794  0.496-   3 2.66 191 2.81 198 2.92  51 2.96  72 2.98 154 3.06 181 3.24
   8  0.525  0.761  0.940-  19 2.65 145 2.84 186 2.85 151 3.04 139 3.04 166 3.15
   9  0.496  0.364  0.229-  28 2.71  30 2.72  58 2.92 111 2.94 187 3.08 147 3.09  60 3.13
  10  0.725  0.539  0.671-  32 2.71  35 2.72 106 2.86  78 3.01 206 3.07  79 3.12
  11  0.445  0.044  0.676-  38 2.82 171 2.84  49 2.90 180 2.92 215 3.03 189 3.12  63 3.27
  12  0.427  0.734  0.137- 163 2.82 144 2.84  90 2.87 139 2.92 166 2.98  84 3.07
  13  0.568  0.662  0.280-  34 2.63  97 2.88  90 2.97  54 3.03 204 3.09 111 3.24
  14  0.979  0.027  0.346-   3 2.58   1 2.78 103 2.84 196 2.93  47 3.08  73 3.10
  15  0.870  0.716  0.987-  39 2.60 193 2.85  50 2.86  53 2.94  89 3.31
  16  0.560  0.152  0.323-  77 2.85 187 2.90  69 2.90 160 2.94  58 2.98  99 3.06
  17  0.259  0.489  0.548-  43 2.80  52 2.85 115 2.94 134 3.02 177 3.05 159 3.12
  18  0.036  0.463  0.180-   5 2.64  59 2.87 135 2.93 194 3.06 101 3.11 161 3.14
  19  0.436  0.872  0.907-  25 2.61   8 2.65 140 2.87 215 2.94 122 2.99 166 3.18
  20  0.071  0.680  0.247-   5 2.70 123 2.94 154 3.00 202 3.07 110 3.16 161 3.16  89 3.34
  21  0.981  0.273  0.826-  23 2.70 183 2.99 156 3.01  44 3.04  94 3.15 146 3.15 138 3.18
  22  0.568  0.199  0.788- 117 2.88 132 2.91  65 2.94  49 2.95 165 3.06 189 3.10 109 3.17
  23  0.104  0.331  0.886-  21 2.70  76 2.87 194 2.88 209 2.91 205 2.94 156 3.14 146 3.27
  24  0.522  0.564  0.733-  31 2.66 206 2.81  93 2.84 149 2.92 151 2.98
  25  0.360  0.941  0.009-  19 2.61 182 2.82 213 2.83 166 2.98 118 2.98 157 3.21
  26  0.955  0.955  0.749-  27 2.74 212 2.89 185 2.92 170 2.93 208 2.95 183 2.99
  27  0.895  0.825  0.805-  42 2.73  26 2.74 141 2.85  51 2.91  53 2.95 188 2.97
  28  0.477  0.264  0.119-  37 2.67   9 2.71  60 2.93  99 2.96  75 2.97 187 2.99
  29  0.151  0.377  0.392- 134 2.85 105 2.95  59 2.96  66 2.99 177 3.00 161 3.09  68 3.20
  30  0.640  0.408  0.240-  34 2.68   9 2.72 184 2.88  64 3.02 128 3.10  54 3.27
  31  0.523  0.616  0.595-  24 2.66  70 2.85  35 2.91  48 3.00 176 3.06  62 3.09 159 3.18
  32  0.697  0.685  0.697-   4 2.65  10 2.71  62 2.83  45 2.94 188 3.00 151 3.13
  33  0.816  0.938  0.271-   1 2.68  91 2.82 178 2.89 158 2.97 196 3.04 169 3.07
  34  0.620  0.550  0.201-  13 2.63  30 2.68 133 2.85 153 2.95 111 3.03  54 3.07
  35  0.656  0.545  0.538-  10 2.72  62 2.89  31 2.91 152 3.03  54 3.09 162 3.10
  36  0.741  0.077  0.462- 192 2.85 178 2.88 160 2.89  73 2.91  69 2.96 100 3.08
  37  0.578  0.306  0.017-  28 2.67 117 2.80 184 2.90  85 2.91
  38  0.588  0.013  0.622-  11 2.82 189 2.91  46 2.92  65 2.94 160 3.04 192 3.04 143 3.05
  39  0.729  0.710  0.018-  15 2.60  40 2.72 145 2.98  45 2.99 142 3.04 139 3.04
  40  0.775  0.761  0.152-  39 2.72 204 2.87 133 2.91  89 2.94 158 2.96 169 2.97
  41  0.744  0.424  0.473- 203 2.90  64 2.91 162 2.92 152 2.92  79 3.01
  42  0.041  0.818  0.841-  27 2.73 167 2.86 127 2.90 107 2.92 193 2.93 208 3.07
  43  0.252  0.493  0.703-  17 2.80  93 2.90  56 2.97  55 2.97 209 2.99 159 3.21  98 3.25
  44  0.833  0.350  0.813-  21 3.04 106 3.14 109 3.23 138 3.24  94 3.27 136 3.27 165 3.37 146 3.43
                           201 3.48  79 3.55 108 3.70
  45  0.709  0.671  0.858-  32 2.94  39 2.99  53 3.10 149 3.12 145 3.18 106 3.20 188 3.40 151 3.40
                           142 3.58
  46  0.588  0.866  0.556-  38 2.92 176 3.06 207 3.07  62 3.18 116 3.22 137 3.23 171 3.24 143 3.38

  47  0.051  0.161  0.425-  14 3.08  73 3.13  66 3.15 105 3.19  80 3.21  74 3.27  67 3.31 103 3.38
                            57 3.44  68 3.73
  48  0.440  0.472  0.577-  31 3.00  88 3.12  87 3.14 159 3.23 152 3.31 206 3.56  70 3.70  52 3.73

  49  0.458  0.085  0.831-  11 2.90  22 2.95 140 3.05 174 3.14 157 3.16 125 3.30 213 3.48  65 3.56
                           117 3.67
  50  0.918  0.592  0.073-  15 2.86   5 2.94 108 3.13 102 3.15 133 3.24  89 3.36  83 3.36 202 3.48
                           142 3.63
  51  0.904  0.807  0.645-  27 2.91   7 2.96   4 2.98 207 3.14 127 3.26 185 3.33 181 3.34 198 3.48
                           188 3.69
  52  0.282  0.337  0.590-  17 2.85  57 3.01  87 3.05  55 3.14 195 3.45 180 3.56  48 3.73 134 3.76

  53  0.878  0.664  0.833-   4 2.81  15 2.94  27 2.95 121 3.04 108 3.08  45 3.10
  54  0.622  0.532  0.371-  13 3.03  34 3.07  35 3.09  88 3.14 162 3.15  30 3.27  70 3.36
  55  0.306  0.349  0.761-  43 2.97 132 3.11 174 3.12  52 3.14  92 3.20  76 3.23 205 3.36 209 3.68

  56  0.111  0.558  0.652-  43 2.97  82 3.04 113 3.08 181 3.08 177 3.14 121 3.14  98 3.34
  57  0.146  0.242  0.568-  52 3.01 211 3.10  68 3.11 105 3.17  76 3.29  82 3.31  47 3.44  80 3.48
                           179 3.53
  58  0.531  0.306  0.376-   9 2.92  16 2.98  88 3.07 195 3.07  64 3.07 187 3.22 152 3.32
  59  0.153  0.368  0.228-  18 2.87  29 2.96 147 3.13 161 3.30 214 3.40  66 3.44  67 3.45  95 3.50
                            96 3.56 101 3.61
  60  0.428  0.413  0.078-  28 2.93   9 3.13 144 3.15 153 3.18 214 3.29  85 3.34 147 3.34  92 3.47
                            75 3.56 111 3.62
  61  0.228  0.575  0.108-   5 2.87 214 3.05 155 3.05 190 3.08 144 3.12 163 3.19
  62  0.662  0.706  0.546-  32 2.83  35 2.89  31 3.09  97 3.10 198 3.13  46 3.18 207 3.52
  63  0.273  0.988  0.682- 157 3.19  81 3.19  71 3.20 211 3.22 180 3.25  11 3.27 215 3.27 212 3.33
                           171 3.67
  64  0.700  0.314  0.363-  41 2.91  30 3.02 119 3.07  58 3.07 100 3.17  69 3.21 128 3.44 203 3.56
                           152 3.74
  65  0.643  0.056  0.769-  22 2.94  38 2.94 170 3.09 143 3.18 140 3.20 192 3.39 165 3.45 173 3.48
                            49 3.56
  66  0.009  0.309  0.342-  29 2.99 135 3.08 119 3.11  67 3.14  47 3.15  68 3.17 101 3.44  59 3.44
                           203 3.63
  67  0.088  0.187  0.246- 168 3.00  95 3.05  66 3.14  96 3.24 120 3.25 101 3.30  47 3.31 103 3.33
                            59 3.45
  68  0.023  0.347  0.513-  82 3.05 203 3.09  57 3.11  66 3.17  29 3.20  86 3.23 177 3.23  94 3.28
                            47 3.73
  69  0.720  0.144  0.313-  16 2.90  36 2.96   1 2.99  91 3.21  64 3.21  99 3.42 119 3.42  73 3.44

  70  0.478  0.626  0.444-  31 2.85  88 3.04 137 3.11 115 3.15  90 3.30  54 3.36  48 3.70 210 3.72

  71  0.267  0.917  0.519- 171 3.02 179 3.02 191 3.03 210 3.04  63 3.20 130 3.50  81 3.63
  72  0.979  0.646  0.422-   7 2.98 129 3.13 181 3.13 202 3.16  86 3.22 154 3.29 135 3.57 177 3.61
                           198 3.70
  73  0.879  0.149  0.416-  36 2.91   1 3.09  14 3.10  47 3.13 203 3.17 119 3.40  69 3.44  80 3.59

  74  0.073  0.009  0.522-   3 2.98 179 3.16 191 3.17 185 3.20 211 3.23  80 3.27  47 3.27 212 3.29
                           103 3.74
  75  0.319  0.246  0.081-  28 2.97 205 3.11  95 3.15 214 3.26  96 3.32 125 3.37 213 3.37 164 3.38
                           147 3.55  60 3.56 148 3.73
  76  0.150  0.262  0.749-  23 2.87  82 3.02  55 3.23 216 3.24  57 3.29 211 3.34 174 3.50 205 3.71

  77  0.508  0.030  0.237-  16 2.85 199 3.07 148 3.10  91 3.10 175 3.14  84 3.21  99 3.62 187 3.68

  78  0.886  0.500  0.671-   4 2.96  10 3.01  86 3.19 146 3.22  79 3.24 181 3.31  94 3.59 106 3.71

  79  0.764  0.375  0.631-  41 3.01  10 3.12 165 3.24  78 3.24  94 3.28   6 3.34 203 3.42 206 3.42
                            44 3.55 152 3.62 100 3.69
  80  0.978  0.149  0.587-   6 3.09 185 3.13  47 3.21 183 3.26  94 3.26  74 3.27 211 3.31  57 3.48
                            73 3.59
  81  0.257  0.811  0.691- 107 3.08 126 3.12 113 3.17  63 3.19 215 3.33  98 3.35 127 3.51 212 3.56
                            71 3.63
  82  0.090  0.390  0.661-  76 3.02  56 3.04  68 3.05 146 3.14  94 3.30  57 3.31
  83  0.067  0.557  0.965-   5 2.96 194 3.07 167 3.10 209 3.18 121 3.23 108 3.35  50 3.36 190 3.63

  84  0.476  0.854  0.246-  12 3.07 204 3.08 166 3.16  77 3.21 118 3.23 130 3.27  90 3.27 199 3.28
                           137 3.34
  85  0.504  0.398  0.909-  37 2.91 132 3.06 149 3.13 109 3.18  92 3.20 125 3.21  60 3.34 153 3.55

  86  0.921  0.492  0.497-  78 3.19 135 3.19  72 3.22  68 3.23 162 3.24 177 3.33 181 3.40 203 3.43

  87  0.445  0.297  0.587- 189 3.05  52 3.05 195 3.07  48 3.14 132 3.18 152 3.31 180 3.37
  88  0.466  0.461  0.406-  70 3.04 134 3.05  58 3.07  48 3.12  54 3.14 111 3.14 152 3.49
  89  0.938  0.760  0.151-  40 2.94 110 3.18 202 3.19 193 3.20 169 3.31  15 3.31  20 3.34 196 3.35
                            50 3.36 154 3.41 158 3.55
  90  0.407  0.690  0.290-  12 2.87  13 2.97  84 3.27 111 3.27 123 3.29  70 3.30 137 3.44 130 3.44
                           155 3.45 115 3.57
  91  0.674  0.990  0.236-  33 2.82  77 3.10 116 3.14 150 3.20  69 3.21 172 3.23 204 3.39
  92  0.331  0.435  0.914-  93 3.12 205 3.17 214 3.18  85 3.20  55 3.20 190 3.22 209 3.26  60 3.47

  93  0.375  0.547  0.789-  24 2.84  43 2.90  92 3.12 126 3.12 186 3.20 159 3.37 190 3.53  98 3.57

  94  0.927  0.305  0.664-   6 3.03  21 3.15  80 3.26  44 3.27  79 3.28  68 3.28  82 3.30 203 3.58
                            78 3.59 146 3.73
  95  0.256  0.204  0.239-  67 3.05 187 3.09 105 3.11  75 3.15 148 3.21 147 3.30 120 3.37  59 3.50
                            96 3.69 114 3.72
  96  0.136  0.239  0.079- 156 3.15 194 3.20  67 3.24 101 3.30  75 3.32 164 3.35 205 3.50 120 3.53
                            59 3.56 214 3.67  95 3.69
  97  0.664  0.743  0.378-  13 2.88  62 3.10 158 3.11 116 3.16 204 3.24 137 3.35 198 3.38
  98  0.209  0.652  0.777- 126 3.19 121 3.21 167 3.25  43 3.25 190 3.29  56 3.34  81 3.35 209 3.49
                           127 3.54  93 3.57 113 3.63
  99  0.614  0.188  0.165-  28 2.96  16 3.06 175 3.15 104 3.16  69 3.42  77 3.62
 100  0.680  0.227  0.516-   6 2.88  36 3.08 189 3.13  64 3.17 152 3.29 160 3.37 203 3.62  79 3.69

 101  0.981  0.301  0.154-   2 2.95  18 3.11 102 3.23  96 3.30  67 3.30 194 3.33 119 3.35  66 3.44
                           168 3.45  59 3.61 138 3.63
 102  0.864  0.431  0.120- 128 3.13  50 3.15 138 3.18 184 3.21 101 3.23 133 3.64 142 3.70 104 3.74

 103  0.135  0.026  0.324-  14 2.84 114 3.08 131 3.11 120 3.24  67 3.33  47 3.38 112 3.52  74 3.74
                           179 3.75
 104  0.778  0.241  0.133-   2 2.96 172 3.09 119 3.15 184 3.16  99 3.16 136 3.20 102 3.74
 105  0.215  0.227  0.406-  29 2.95 195 3.04  95 3.11 179 3.14  57 3.17  47 3.19
 106  0.746  0.501  0.823-  10 2.86  44 3.14 108 3.20  45 3.20 149 3.21 109 3.25 142 3.40  78 3.71

 107  0.194  0.869  0.840-  42 2.92  81 3.08 157 3.14 182 3.15 122 3.18 167 3.37 212 3.50 208 3.57

 108  0.892  0.516  0.919-  53 3.08  50 3.13 146 3.14 138 3.15 106 3.20 142 3.28  83 3.35  44 3.70

 109  0.656  0.344  0.838- 136 3.17  22 3.17  85 3.18 165 3.18  44 3.23 106 3.25 206 3.30 132 3.59
                           117 3.69
 110  0.104  0.757  0.092-   5 3.02 112 3.06 167 3.13 163 3.14  20 3.16  89 3.18 193 3.20
 111  0.460  0.523  0.243-   9 2.94  34 3.03  88 3.14 144 3.16 155 3.19  13 3.24  90 3.27 147 3.60
                            60 3.62
 112  0.151  0.893  0.181- 110 3.06 120 3.07 118 3.16 131 3.16 196 3.31 200 3.35 182 3.37 103 3.52

 113  0.193  0.692  0.580- 129 3.07  56 3.08 191 3.14  81 3.17 159 3.19 127 3.25 210 3.28  98 3.63
                           115 3.66
 114  0.303  0.033  0.345- 103 3.08 148 3.15 179 3.15 199 3.18 130 3.26 124 3.38  95 3.72
 115  0.306  0.601  0.438-  17 2.94  70 3.15 129 3.21 210 3.23 134 3.28 155 3.34 159 3.37  90 3.57
                           113 3.66
 116  0.629  0.915  0.388- 178 3.07  91 3.14  97 3.16  46 3.22 199 3.23 137 3.29 160 3.33 204 3.73

 117  0.603  0.172  0.941-  37 2.80  22 2.88 173 3.13 175 3.27 136 3.31 125 3.45  49 3.67 109 3.69
                           140 3.71
 118  0.324  0.900  0.166-  25 2.98 148 3.05 163 3.15 112 3.16  84 3.23 130 3.31 166 3.52 182 3.70

 119  0.849  0.282  0.286-  64 3.07  66 3.11 104 3.15 128 3.27 101 3.35  73 3.40  69 3.42 203 3.52

 120  0.174  0.060  0.151- 112 3.07 164 3.09 103 3.24  67 3.25 148 3.27 200 3.27  95 3.37  96 3.53
                           182 3.61 168 3.71
 121  0.036  0.617  0.799-  53 3.04  56 3.14 146 3.15  98 3.21 127 3.22  83 3.23 167 3.30 209 3.66

 122  0.306  0.772  0.934-  19 2.99 163 3.03 126 3.16 107 3.18 190 3.23 167 3.41 182 3.58 186 3.60

 123  0.229  0.714  0.268-  20 2.94 129 3.09 163 3.22 155 3.25  90 3.29 131 3.30 130 3.31
 124  0.409  0.111  0.477- 195 3.02 180 3.10 199 3.17 160 3.19 179 3.27 171 3.35 114 3.38
 125  0.425  0.238  0.926- 213 3.10  85 3.21 205 3.23 174 3.25  49 3.30  75 3.37 117 3.45 132 3.54

 126  0.373  0.720  0.780-  93 3.12  81 3.12 122 3.16 151 3.18  98 3.19 215 3.25 176 3.37 159 3.46
                           186 3.47
 127  0.070  0.759  0.694-  42 2.90 212 3.06 181 3.21 121 3.22 113 3.25  51 3.26 191 3.44  81 3.51
                            98 3.54
 128  0.799  0.456  0.279-  30 3.10 135 3.10 102 3.13 119 3.27 133 3.27 162 3.37  64 3.44 202 3.63

 129  0.149  0.679  0.417- 113 3.07 123 3.09  72 3.13 115 3.21 161 3.33 131 3.40 177 3.43 191 3.52

 130  0.322  0.853  0.344- 131 3.11 210 3.23 114 3.26  84 3.27 123 3.31 199 3.31 118 3.31  90 3.44
                            71 3.50 137 3.55
 131  0.151  0.857  0.353- 154 3.09 103 3.11 130 3.11 112 3.16 191 3.19 123 3.30 129 3.40
 132  0.476  0.327  0.757-  22 2.91 206 3.04  85 3.06  55 3.11  87 3.18 125 3.54 109 3.59
 133  0.768  0.600  0.173-  34 2.85  40 2.91 202 3.10 142 3.23  50 3.24 128 3.27 102 3.64
 134  0.302  0.422  0.400-  29 2.85  17 3.02  88 3.05 195 3.12 147 3.21 115 3.28 155 3.29  52 3.76

 135  0.962  0.473  0.326-  18 2.93  66 3.08 128 3.10 202 3.11 161 3.11  86 3.19  72 3.57
 136  0.758  0.270  0.959- 109 3.17 201 3.19 104 3.20 138 3.21  44 3.27 117 3.31 184 3.38
 137  0.492  0.797  0.422-  70 3.11 210 3.13 199 3.17  46 3.23 116 3.29  84 3.34  97 3.35  90 3.44
                           130 3.55 176 3.66 171 3.75
 138  0.916  0.351  0.971-   2 2.93 108 3.15 102 3.18  21 3.18 136 3.21 194 3.23  44 3.24 101 3.63

 139  0.575  0.693  0.086-  12 2.92  39 3.04   8 3.04 153 3.19 204 3.25 166 3.54 144 3.71
 140  0.560  0.974  0.905-  19 2.87  49 3.05  65 3.20 145 3.26 173 3.29 175 3.31 143 3.31 166 3.71
                           117 3.71
 141  0.829  0.896  0.930-  27 2.85 169 3.15 145 3.16 193 3.20 197 3.23 170 3.27 173 3.35 188 3.65

 142  0.735  0.542  0.007-  39 3.04 153 3.16 184 3.21 133 3.23 108 3.28 106 3.40  45 3.58 149 3.58
                            50 3.63 102 3.70
 143  0.582  0.892  0.741-  38 3.05 188 3.06 215 3.09  65 3.18 151 3.18 140 3.31  46 3.38
 144  0.399  0.585  0.091-  12 2.84 186 3.04  61 3.12  60 3.15 111 3.16 153 3.33 163 3.66 190 3.69
                           139 3.71 155 3.76
 145  0.666  0.830  0.923-   8 2.84  39 2.98 150 3.15 188 3.15 141 3.16  45 3.18 140 3.26
 146  0.997  0.446  0.798-  82 3.14 108 3.14 121 3.15  21 3.15  78 3.22  23 3.27 209 3.30  44 3.43
                            94 3.73
 147  0.325  0.374  0.230-   9 3.09  59 3.13 155 3.18 134 3.21  95 3.30 214 3.32  60 3.34 187 3.49
                            75 3.55 111 3.60
 148  0.352  0.067  0.180- 118 3.05  77 3.10 213 3.10 114 3.15  95 3.21 120 3.27 187 3.34  75 3.73

 149  0.585  0.551  0.881-  24 2.92 186 3.08  45 3.12 153 3.13  85 3.13 106 3.21 142 3.58 151 3.65

 150  0.668  0.918  0.073- 175 3.13 145 3.15 169 3.16  91 3.20 204 3.25 166 3.26 173 3.40 172 3.43

 151  0.548  0.722  0.778-  24 2.98   8 3.04  32 3.13 126 3.18 143 3.18 176 3.38  45 3.40 149 3.65

 152  0.595  0.388  0.527-  41 2.92  35 3.03 206 3.06 100 3.29  48 3.31  87 3.31  58 3.32  88 3.49
                            79 3.62  64 3.74
 153  0.567  0.519  0.051-  34 2.95 149 3.13 142 3.16  60 3.18 139 3.19 144 3.33 184 3.40  85 3.55
                           186 3.70
 154  0.991  0.802  0.327-  20 3.00   7 3.06 196 3.07 131 3.09 158 3.16  72 3.29   3 3.31  89 3.41
                           202 3.68
 155  0.286  0.543  0.263- 161 3.04  61 3.05 147 3.18 111 3.19 123 3.25 134 3.29 115 3.34  90 3.45
                           144 3.76
 156  0.045  0.176  0.945-  21 3.01   2 3.02 216 3.13  23 3.14  96 3.15 197 3.44 183 3.60 208 3.63
                           164 3.74
 157  0.302  0.006  0.855- 107 3.14  49 3.16 216 3.16  63 3.19  25 3.21 174 3.28 164 3.32 215 3.42
                           182 3.49
 158  0.819  0.777  0.308-  40 2.96  33 2.97  97 3.11 198 3.16 154 3.16 202 3.31 178 3.52  89 3.55

 159  0.348  0.619  0.619-  17 3.12  31 3.18 113 3.19  43 3.21  48 3.23  93 3.37 115 3.37 210 3.40
                           176 3.40 126 3.46
 160  0.581  0.076  0.465-  36 2.89  16 2.94  38 3.04 124 3.19 199 3.27 189 3.29 116 3.33 100 3.37

 161  0.126  0.527  0.314- 155 3.04  29 3.09 135 3.11  18 3.14 177 3.15  20 3.16  59 3.30 129 3.33

 162  0.782  0.575  0.423-  41 2.92  35 3.10  54 3.15  86 3.24 128 3.37 198 3.47
 163  0.277  0.746  0.098-  12 2.82 122 3.03 110 3.14 118 3.15  61 3.19 123 3.22 144 3.66
 164  0.231  0.104  0.994- 120 3.09 216 3.16 213 3.19 182 3.21 157 3.32  96 3.35 205 3.35  75 3.38
                           156 3.74
 165  0.724  0.225  0.726-   6 2.90  22 3.06 201 3.09 109 3.18  79 3.24  44 3.37  65 3.45
 166  0.494  0.872  0.072-  12 2.98  25 2.98   8 3.15  84 3.16  19 3.18 150 3.26 175 3.43 118 3.52
                           139 3.54 140 3.71
 167  0.126  0.715  0.925-  42 2.86  83 3.10 110 3.13  98 3.25 190 3.30 121 3.30 107 3.37 122 3.41
                           193 3.58
 168  0.976  0.109  0.153-   1 2.83   2 2.90  67 3.00 200 3.07 196 3.39 101 3.45 120 3.71 197 3.73
                           172 3.74
 169  0.839  0.907  0.105-  40 2.97  33 3.07 141 3.15 172 3.16 150 3.16 196 3.23  89 3.31 193 3.52

 170  0.803  0.997  0.782-  26 2.93  65 3.09 201 3.12 188 3.20 192 3.25 141 3.27 173 3.36
 171  0.428  0.943  0.556-  11 2.84  71 3.02 199 3.09  46 3.24 176 3.35 124 3.35 215 3.56  63 3.67
                           210 3.69 137 3.75
 172  0.777  0.070  0.111- 104 3.09   1 3.14 169 3.16 173 3.22  91 3.23 197 3.32 150 3.43 168 3.74

 173  0.722  0.047  0.944- 117 3.13 197 3.20 172 3.22 140 3.29 201 3.32 141 3.35 170 3.36 150 3.40
                            65 3.48 175 3.72
 174  0.317  0.179  0.796- 180 3.11  55 3.12  49 3.14 205 3.15 216 3.21 125 3.25 157 3.28  76 3.50

 175  0.558  0.052  0.071- 213 3.04 150 3.13  77 3.14  99 3.15 117 3.27 140 3.31 166 3.43 173 3.72

 176  0.461  0.772  0.621-  46 3.06  31 3.06 210 3.13 215 3.28 171 3.35 126 3.37 151 3.38 159 3.40
                           137 3.66
 177  0.104  0.506  0.486-  29 3.00  17 3.05  56 3.14 161 3.15  68 3.23  86 3.33 129 3.43  72 3.61

 178  0.793  0.929  0.429-   3 2.82  36 2.88  33 2.89 116 3.07 207 3.25 198 3.30 158 3.52
 179  0.232  0.080  0.498-  71 3.02 105 3.14 114 3.15  74 3.16 180 3.25 124 3.27 211 3.45  57 3.53
                           103 3.75
 180  0.334  0.151  0.627-  11 2.92 124 3.10 174 3.11 179 3.25  63 3.25  87 3.37  52 3.56
 181  0.976  0.644  0.596-   4 2.90  56 3.08  72 3.13 127 3.21   7 3.24  78 3.31  51 3.34  86 3.40

 182  0.205  0.928  0.004-  25 2.82 107 3.15 164 3.21 200 3.29 112 3.37 157 3.49 122 3.58 120 3.61
                           118 3.70
 183  0.983  0.118  0.766-  26 2.99  21 2.99 201 3.16  80 3.26 211 3.31 208 3.41 216 3.47 156 3.60

 184  0.694  0.388  0.090-  30 2.88  37 2.90 104 3.16 102 3.21 142 3.21 136 3.38 153 3.40
 185  0.913  0.986  0.597-   3 2.90  26 2.92 192 3.09  80 3.13  74 3.20  51 3.33 207 3.54
 186  0.441  0.626  0.932-   8 2.85 144 3.04 149 3.08  93 3.20 190 3.26 126 3.47 122 3.60 153 3.70

 187  0.423  0.213  0.269-  16 2.90  28 2.99   9 3.08  95 3.09  58 3.22 195 3.29 148 3.34 147 3.49
                            77 3.68
 188  0.738  0.832  0.762-  27 2.97  32 3.00 143 3.06 207 3.08 145 3.15 170 3.20  45 3.40 141 3.65
                            51 3.69
 189  0.551  0.171  0.619-  38 2.91  87 3.05  22 3.10  11 3.12 100 3.13 160 3.29
 190  0.263  0.597  0.942-  61 3.08  92 3.22 122 3.23 209 3.26 186 3.26  98 3.29 167 3.30  93 3.53
                            83 3.63 144 3.69
 191  0.118  0.839  0.526-   7 2.81  71 3.03 113 3.14  74 3.17 131 3.19 212 3.27 127 3.44 129 3.52

 192  0.754  0.045  0.616-  36 2.85   6 3.02  38 3.04 185 3.09 207 3.13 170 3.25  65 3.39
 193  0.980  0.830  0.992-  15 2.85  42 2.93 200 3.16  89 3.20 110 3.20 141 3.20 169 3.52 208 3.52
                           167 3.58
 194  0.078  0.398  0.028-  23 2.88  18 3.06  83 3.07 214 3.15  96 3.20 138 3.23 101 3.33
 195  0.375  0.270  0.436- 124 3.02 105 3.04  87 3.07  58 3.07 134 3.12 187 3.29  52 3.45
 196  0.975  0.931  0.216-  14 2.93  33 3.04 154 3.07 200 3.12 169 3.23 112 3.31  89 3.35 168 3.39

 197  0.896  0.058  0.970-   2 2.95 201 3.19 173 3.20 141 3.23 208 3.31 172 3.32 200 3.42 156 3.44
                           168 3.73
 198  0.817  0.755  0.482-   7 2.92  62 3.13 158 3.16 207 3.16 178 3.30  97 3.38 162 3.47  51 3.48
                            72 3.70
 199  0.459  0.967  0.389-  77 3.07 171 3.09 124 3.17 137 3.17 114 3.18 116 3.23 160 3.27  84 3.28
                           130 3.31
 200  0.040  0.980  0.062- 168 3.07 196 3.12 193 3.16 208 3.20 120 3.27 182 3.29 112 3.35 197 3.42

 201  0.829  0.158  0.842- 165 3.09 170 3.12 183 3.16 197 3.19 136 3.19 173 3.32  44 3.48
 202  0.911  0.624  0.263-  20 3.07 133 3.10 135 3.11  72 3.16  89 3.19 158 3.31  50 3.48 128 3.63
                           154 3.68
 203  0.859  0.313  0.478-  41 2.90   6 2.99  68 3.09  73 3.17  79 3.42  86 3.43 119 3.52  64 3.56
                            94 3.58 100 3.62  66 3.63
 204  0.636  0.806  0.212-  40 2.87  84 3.08  13 3.09  97 3.24 139 3.25 150 3.25  91 3.39 116 3.73

 205  0.252  0.277  0.926-  23 2.94  75 3.11 174 3.15  92 3.17 125 3.23 164 3.35  55 3.36  96 3.50
                           214 3.53  76 3.71
 206  0.593  0.432  0.691-  24 2.81 132 3.04 152 3.06  10 3.07 109 3.30  79 3.42  48 3.56
 207  0.752  0.872  0.596-  46 3.07 188 3.08 192 3.13  51 3.14 198 3.16 178 3.25  62 3.52 185 3.54

 208  0.040  0.984  0.884-  26 2.95  42 3.07 216 3.15 200 3.20 197 3.31 183 3.41 193 3.52 107 3.57
                           156 3.63
 209  0.170  0.474  0.847-  23 2.91  43 2.99  83 3.18 190 3.26  92 3.26 146 3.30  98 3.49 121 3.66
                            55 3.68
 210  0.339  0.766  0.500-  71 3.04 176 3.13 137 3.13 130 3.23 115 3.23 113 3.28 159 3.40 171 3.69
                            70 3.72
 211  0.135  0.098  0.664-  57 3.10 216 3.14 212 3.15  63 3.22  74 3.23  80 3.31 183 3.31  76 3.34
                           179 3.45
 212  0.099  0.927  0.683-  26 2.89 127 3.06 211 3.15 191 3.27  74 3.29  63 3.33 107 3.50  81 3.56

 213  0.405  0.092  0.017-  25 2.83 175 3.04 125 3.10 148 3.10 164 3.19  75 3.37  49 3.48
 214  0.246  0.411  0.069-  61 3.05 194 3.15  92 3.18  75 3.26  60 3.29 147 3.32  59 3.40 205 3.53
                            96 3.67
 215  0.412  0.895  0.747-  19 2.94  11 3.03 143 3.09 126 3.25  63 3.27 176 3.28  81 3.33 157 3.42
                           171 3.56
 216  0.159  0.104  0.835- 156 3.13 211 3.14 208 3.15 164 3.16 157 3.16 174 3.21  76 3.24 183 3.47

 

IMPORTANT INFORMATION: All symmetrisations will be switched off!
NOSYMM: (Re-)initialisation of all symmetry stuff for point group C_1.

 
 
 KPOINTS: k-points                                

Automatic generation of k-mesh.
Space group operators:
 irot       det(A)        alpha          n_x          n_y          n_z        tau_x        tau_y        tau_z
    1     1.000000     0.000000     1.000000     0.000000     0.000000     0.000000     0.000000     0.000000
 
 Subroutine IBZKPT returns following result:
 ===========================================
 
 Found      1 irreducible k-points:
 
 Following reciprocal coordinates:
            Coordinates               Weight
  0.000000  0.000000  0.000000      1.000000
 
 Following cartesian coordinates:
            Coordinates               Weight
  0.000000  0.000000  0.000000      1.000000
 
 
 Subroutine IBZKPT_HF returns following result:
 ==============================================
 
 Found      1 k-points in 1st BZ
 the following      1 k-points will be used (e.g. in the exchange kernel)
 Following reciprocal coordinates:   # in IRBZ
  0.000000  0.000000  0.000000    1.00000000   1 t-inv F


--------------------------------------------------------------------------------------------------------




 Dimension of arrays:
   k-points           NKPTS =      1   k-points in BZ     NKDIM =      1   number of bands    NBANDS=   1820
   number of dos      NEDOS =   3001   number of ions     NIONS =    216
   non local maximal  LDIM  =      6   non local SUM 2l+1 LMDIM =     18
   total plane-waves  NPLWV = ******
   max r-space proj   IRMAX =      1   max aug-charges    IRDMAX=  13374
   dimension x,y,z NGX =   120 NGY =  120 NGZ =  120
   dimension x,y,z NGXF=   240 NGYF=  240 NGZF=  240
   support grid    NGXF=   240 NGYF=  240 NGZF=  240
   ions per type =              43 173
   NGX,Y,Z   is equivalent  to a cutoff of  11.02, 11.11, 11.07 a.u.
   NGXF,Y,Z  is equivalent  to a cutoff of  22.04, 22.22, 22.14 a.u.

 SYSTEM =  GeSn_216                                
 POSCAR =  Ge43Sn173 random alloy generated from Ge

 Startparameter for this run:
   NWRITE =      2    write-flag & timer
   PREC   = accura    normal or accurate (medium, high low for compatibility)
   ISTART =      0    job   : 0-new  1-cont  2-samecut
   ICHARG =      1    charge: 1-file 2-atom 10-const
   ISPIN  =      1    spin polarized calculation?
   LNONCOLLINEAR =      F non collinear calculations
   LSORBIT =      F    spin-orbit coupling
   INIWAV =      1    electr: 0-lowe 1-rand  2-diag
   LASPH  =      T    aspherical Exc in radial PAW
   METAGGA=      F    non-selfconsistent MetaGGA calc.

 Electronic Relaxation 1
   ENCUT  =  400.0 eV  29.40 Ry    5.42 a.u.  29.52 29.28 29.39*2*pi/ulx,y,z
   ENINI  =  400.0     initial cutoff
   ENAUG  =  531.4 eV  augmentation charge cutoff
   NELM   =    100;   NELMIN=  5; NELMDL=  0     # of ELM steps 
   EDIFF  = 0.1E-05   stopping-criterion for ELM
   LREAL  =      F    real-space projection
   NLSPLINE    = F    spline interpolate recip. space projectors
   LCOMPAT=      F    compatible to vasp.4.4
   GGA_COMPAT  = T    GGA compatible to vasp.4.4-vasp.4.6
   LMAXPAW     = -100 max onsite density
   LMAXMIX     =    2 max onsite mixed and CHGCAR
   VOSKOWN=      0    Vosko Wilk Nusair interpolation
   ROPT   =    0.00000   0.00000
 Ionic relaxation
   EDIFFG = -.3E-01   stopping-criterion for IOM
   NSW    =      0    number of steps for IOM
   NBLOCK =      1;   KBLOCK =      1    inner block; outer block 
   IBRION =     -1    ionic relax: 0-MD 1-quasi-New 2-CG
   NFREE  =      0    steps in history (QN), initial steepest desc. (CG)
   ISIF   =      0    stress and relaxation
   IWAVPR =     10    prediction:  0-non 1-charg 2-wave 3-comb
   ISYM   =      0    0-nonsym 1-usesym 2-fastsym
   LCORR  =      T    Harris-Foulkes like correction to forces

   POTIM  = 0.5000    time-step for ionic-motion
   TEIN   =    0.0    initial temperature
   TEBEG  =    0.0;   TEEND  =   0.0 temperature during run
   SMASS  =  -3.00    Nose mass-parameter (am)
   estimated Nose-frequenzy (Omega)   =  0.10E-29 period in steps =****** mass=  -0.749E-26a.u.
   SCALEE = 1.0000    scale energy and forces
   NPACO  =    256;   APACO  = 16.0  distance and # of slots for P.C.
   PSTRESS=    0.0 pullay stress

  Mass of Ions in am
   POMASS =  72.61118.71
  Ionic Valenz
   ZVAL   =  14.00 14.00
  Atomic Wigner-Seitz radii
   RWIGS  =  -1.00 -1.00
  virtual crystal weights 
   VCA    =   1.00  1.00
   NELECT =    3024.0000    total number of electrons
   NUPDOWN=      -1.0000    fix difference up-down

 DOS related values:
   EMIN   =  10.00;   EMAX   =-10.00  energy-range for DOS
   EFERMI =   0.00
   ISMEAR =     0;   SIGMA  =   0.05  broadening in eV -4-tet -1-fermi 0-gaus

 Electronic relaxation 2 (details)
   IALGO  =     53    algorithm
   LDIAG  =      T    sub-space diagonalisation (order eigenvalues)
   LSUBROT=      F    optimize rotation matrix (better conditioning)
   TURBO    =      0    0=normal 1=particle mesh
   IRESTART =      0    0=no restart 2=restart with 2 vectors
   NREBOOT  =      0    no. of reboots
   NMIN     =      0    reboot dimension
   EREF     =   0.00    reference energy to select bands
   IMIX   =      4    mixing-type and parameters
     AMIX     =   0.40;   BMIX     =  1.00
     AMIX_MAG =   1.60;   BMIX_MAG =  1.00
     AMIN     =   0.10
     WC   =   100.;   INIMIX=   1;  MIXPRE=   1;  MAXMIX= -45

 Intra band minimization:
   WEIMIN = 0.0000     energy-eigenvalue tresh-hold
   EBREAK =  0.14E-09  absolut break condition
   DEPER  =   0.30     relativ break condition  

   TIME   =   0.20     timestep for ELM

  volume/ion in A,a.u.               =      27.11       182.97
  Fermi-wavevector in a.u.,A,eV,Ry     =   1.313367  2.481904 23.469134  1.724933
  Thomas-Fermi vector in A             =   2.443695
 
 Write flags
   LWAVE        =      T    write WAVECAR
   LDOWNSAMPLE  =      F    k-point downsampling of WAVECAR
   LCHARG       =      T    write CHGCAR
   LVTOT        =      F    write LOCPOT, total local potential
   LVHAR        =      T    write LOCPOT, Hartree potential only
   LELF         =      F    write electronic localiz. function (ELF)
   LORBIT       =     11    0 simple, 1 ext, 2 COOP (PROOUT), +10 PAW based schemes


 Dipole corrections
   LMONO  =      F    monopole corrections only (constant potential shift)
   LDIPOL =      F    correct potential (dipole corrections)
   IDIPOL =      0    1-x, 2-y, 3-z, 4-all directions 
   EPSILON=  1.0000000 bulk dielectric constant

 Core level calculations are selected ICORELEVEL =  1
 Exchange correlation treatment:
   GGA     =    --    GGA type
   LEXCH   =     8    internal setting for exchange type
   VOSKOWN=      0    Vosko Wilk Nusair interpolation
   EXXOEP  =     0    0=HF, 1=EXX-LHF (local Hartree Fock) 2=EXX OEP
   LHFCALC =     T    Hartree Fock is set to
   LSYMGRAD=     F    symmetrize gradient (conserves proper symmetry)
   PRECFOCK=normal    Normal, Fast or Accurate (Low or Medium for compatibility)
   LRHFCALC=     F    long range Hartree Fock
   LRSCOR  =     F    long range correlation only (use DFT for short range part)
   LTHOMAS =     F    Thomas Fermi screening in HF
   LMODELHF=     F    short range full HF, long range fraction AEXX
   ENCUT4O =  -1.0   cutoff for four orbital integrals eV
   LMAXFOCK=     4    L truncation for augmentation on plane wave grid
   LMAXFOCKAE=  -1    L truncation for all-electron charge restoration on plane wave grid
   NMAXFOCKAE=   1    number of basis functions for all-electron charge restoration
   LFOCKAEDFT=     F  apply the AE augmentation even for DFT
   NKREDX  =     1    reduce k-point grid by
   NKREDY  =     1    reduce k-point grid by
   NKREDZ  =     1    reduce k-point grid by
   SHIFTRED=     F    shift reduced grid of Gamma
   HFKIDENT=     F    idential grid for each k-point
   ODDONLY =     F    use only odd q-grid points
   EVENONLY=     F    use only even q-grid points
   HFALPHA =   -1.0000 decay constant for conv. correction
   MCALPHA =    0.0000 extent of test-charge in conv. correction in multipole expansion
   AEXX    =    0.2500 exact exchange contribution
   HFSCREEN=    0.2070 screening length (either q_TF or 0.3 A-1)
   HFSCREENC=   0.2070 screening length for correlation (either q_TF or 0.3 A-1)
   HFRCUT  =    0.0000 spherical cutoff for potential kernel
   ALDAX   =    0.7500 LDA exchange part
   AGGAX   =    0.7500 GGA exchange part
   ALDAC   =    1.0000 LDA correlation
   AGGAC   =    1.0000 GGA correlation
   ENCUTFOCK=  -1.0 apply spherical cutoff to Coloumb kernel
   NBANDSGWLOW=     1    first orbital included in HF term
   NBLOCK_FOCK=    64    blocking factor in FOCK_ACC
 Linear response parameters
   LEPSILON=     F    determine dielectric tensor
   LRPA    =     F    only Hartree local field effects (RPA)
   LNABLA  =     F    use nabla operator in PAW spheres
   LVEL    =     F    velocity operator in full k-point grid
   LINTERFAST=   F  fast interpolation
   KINTER  =     0    interpolate to denser k-point grid
   CSHIFT  =0.1000    complex shift for real part using Kramers Kronig
   OMEGAMAX=  -1.0    maximum frequency
   DEG_THRESHOLD= 0.2000000E-02 threshold for treating states as degnerate
   RTIME   =   -0.100 relaxation time in fs
  (WPLASMAI=    0.000 imaginary part of plasma frequency in eV, 0.658/RTIME)
   DFIELD  = 0.0000000 0.0000000 0.0000000 field for delta impulse in time
 
 Orbital magnetization related:
   ORBITALMAG=     F  switch on orbital magnetization
   LCHIMAG   =     F  perturbation theory with respect to B field
   DQ        =  0.001000  dq finite difference perturbation B field
   LLRAUG    =     F  two centre corrections for induced B field



--------------------------------------------------------------------------------------------------------


 Static calculation
 charge density and potential will be updated during run
 non-spin polarized calculation
 Conjugate gradient for all bands (Freysoldt, et al. PRB 79, 241103 (2009))
 perform sub-space diagonalisation
    before iterative eigenvector-optimisation
 modified Broyden-mixing scheme, WC =      100.0
 initial mixing is a Kerker type mixing with AMIX =  0.4000 and BMIX =      1.0000
 Hartree-type preconditioning will be used
 using additional bands          308
 reciprocal scheme for non local part
 use partial core corrections
 no Harris-corrections to forces 
 use gradient corrections 
 use of overlap-Matrix (Vanderbilt PP)
 Gauss-broadening in eV      SIGMA  =   0.05


--------------------------------------------------------------------------------------------------------


  energy-cutoff  :      400.00
  volume of cell :     5856.63
      direct lattice vectors                 reciprocal lattice vectors
    18.101772958 -0.090963917  0.140489716     0.055248066  0.000281905 -0.000443472
    -0.091387630 17.955144209  0.028533749     0.000280423  0.055695884 -0.000069972
     0.144540761  0.021912387 18.020924626    -0.000431154 -0.000090385  0.055494616

  length of vectors
    18.102546672 17.955399451 18.021517599     0.055250565  0.055696634  0.055496365


 
 k-points in units of 2pi/SCALE and weight: k-points                                
   0.00000000  0.00000000  0.00000000       1.000
 
 k-points in reciprocal lattice and weights: k-points                                
   0.00000000  0.00000000  0.00000000       1.000
 
 position of ions in fractional coordinates (direct lattice) 
   0.86344625  0.07914613  0.26061049
   0.91047519  0.20429754  0.04245862
   0.94686692  0.93182969  0.44919219
   0.84049412  0.65790064  0.68266781
   0.07118932  0.59450013  0.12420113
   0.81526156  0.20053203  0.59423806
   0.97280953  0.79388833  0.49587421
   0.52478677  0.76115827  0.94046760
   0.49592706  0.36424677  0.22920474
   0.72494491  0.53867882  0.67062249
   0.44497985  0.04427903  0.67582107
   0.42653486  0.73370742  0.13711642
   0.56828467  0.66212875  0.27974301
   0.97884620  0.02737629  0.34640322
   0.86964573  0.71604916  0.98717354
   0.56030098  0.15231596  0.32298653
   0.25925834  0.48861747  0.54772630
   0.03617266  0.46262983  0.18025738
   0.43576505  0.87221486  0.90654332
   0.07132664  0.68005667  0.24718193
   0.98066421  0.27317115  0.82587775
   0.56806064  0.19931681  0.78766180
   0.10422748  0.33054505  0.88587792
   0.52212256  0.56384727  0.73310261
   0.35966153  0.94133444  0.00914039
   0.95507243  0.95459211  0.74919849
   0.89502726  0.82493701  0.80544633
   0.47716638  0.26371934  0.11909868
   0.15090285  0.37666225  0.39192221
   0.63982802  0.40781397  0.23967290
   0.52271259  0.61618976  0.59501252
   0.69725146  0.68461680  0.69658900
   0.81566318  0.93782194  0.27053941
   0.62049221  0.55030933  0.20133773
   0.65593742  0.54526078  0.53792624
   0.74114994  0.07664775  0.46180990
   0.57769148  0.30551405  0.01694319
   0.58844367  0.01347385  0.62220408
   0.72883028  0.71047551  0.01811550
   0.77524740  0.76071382  0.15167962
   0.74442136  0.42413841  0.47277975
   0.04061405  0.81830489  0.84126572
   0.25164517  0.49274348  0.70290640
   0.83271174  0.35040118  0.81276853
   0.70861630  0.67117339  0.85847032
   0.58816853  0.86556483  0.55580248
   0.05130022  0.16101128  0.42477374
   0.44021230  0.47173567  0.57686766
   0.45757066  0.08484685  0.83065833
   0.91798626  0.59183702  0.07266378
   0.90440569  0.80730946  0.64519771
   0.28170145  0.33746198  0.58959950
   0.87826366  0.66375811  0.83307379
   0.62203395  0.53233387  0.37089747
   0.30608605  0.34879796  0.76132980
   0.11093283  0.55811004  0.65242845
   0.14629645  0.24187689  0.56798585
   0.53097531  0.30648782  0.37586679
   0.15258263  0.36757492  0.22818524
   0.42752141  0.41258762  0.07810544
   0.22759463  0.57484373  0.10824304
   0.66166283  0.70588899  0.54576180
   0.27278828  0.98838406  0.68164994
   0.70048837  0.31393060  0.36332566
   0.64306687  0.05597234  0.76918741
   0.00872729  0.30872643  0.34185025
   0.08814072  0.18704655  0.24585958
   0.02250335  0.34669867  0.51274410
   0.72026820  0.14371532  0.31327912
   0.47843045  0.62552919  0.44416844
   0.26737828  0.91730487  0.51934958
   0.97898913  0.64552364  0.42199622
   0.87907266  0.14903016  0.41596842
   0.07272765  0.00859210  0.52197200
   0.31898618  0.24583261  0.08057506
   0.14984984  0.26201181  0.74935502
   0.50817374  0.03041636  0.23682849
   0.88641393  0.50044164  0.67132710
   0.76379057  0.37455764  0.63114451
   0.97771234  0.14866866  0.58740028
   0.25701947  0.81144614  0.69140013
   0.08971603  0.39024132  0.66057235
   0.06673681  0.55683381  0.96456262
   0.47582779  0.85429080  0.24633586
   0.50391566  0.39824199  0.90910574
   0.92093140  0.49247598  0.49744978
   0.44529891  0.29728792  0.58710893
   0.46622003  0.46090979  0.40571969
   0.93753503  0.76017952  0.15075085
   0.40691872  0.69044336  0.28989167
   0.67408745  0.98984043  0.23588168
   0.33133329  0.43450706  0.91434191
   0.37532750  0.54677383  0.78856746
   0.92702227  0.30510224  0.66376079
   0.25571002  0.20432375  0.23936525
   0.13573882  0.23888388  0.07924203
   0.66397516  0.74328044  0.37777157
   0.20926871  0.65188478  0.77710672
   0.61366965  0.18794370  0.16500203
   0.68045073  0.22721473  0.51571052
   0.98051968  0.30089055  0.15370116
   0.86362711  0.43092265  0.11951146
   0.13454355  0.02647165  0.32383878
   0.77790489  0.24097580  0.13264257
   0.21501042  0.22715223  0.40596882
   0.74565161  0.50063489  0.82312309
   0.19437498  0.86903398  0.84008621
   0.89248815  0.51626368  0.91855220
   0.65580822  0.34363457  0.83826863
   0.10409354  0.75662953  0.09194768
   0.45962580  0.52297755  0.24280796
   0.15057273  0.89341207  0.18128102
   0.19291897  0.69157757  0.58048979
   0.30307206  0.03343001  0.34492731
   0.30624812  0.60117935  0.43775920
   0.62921754  0.91512527  0.38791919
   0.60295025  0.17244253  0.94094444
   0.32448824  0.89986825  0.16630434
   0.84904281  0.28209140  0.28568831
   0.17446695  0.06040942  0.15116810
   0.03591946  0.61710067  0.79913568
   0.30551728  0.77167867  0.93393556
   0.22887389  0.71438707  0.26815740
   0.40906920  0.11106055  0.47692010
   0.42537076  0.23791404  0.92589362
   0.37272314  0.72041719  0.77979898
   0.06981289  0.75943501  0.69410321
   0.79895262  0.45633828  0.27933626
   0.14895415  0.67877366  0.41723059
   0.32237839  0.85285471  0.34410419
   0.15075456  0.85665423  0.35279756
   0.47622354  0.32747468  0.75746988
   0.76801349  0.60018300  0.17273727
   0.30188623  0.42246030  0.39959305
   0.96245873  0.47270353  0.32576481
   0.75750104  0.26996823  0.95890998
   0.49229461  0.79720730  0.42192378
   0.91564370  0.35092700  0.97094571
   0.57477353  0.69346830  0.08600996
   0.55953290  0.97357573  0.90457634
   0.82852811  0.89582685  0.93049363
   0.73531528  0.54183781  0.00720664
   0.58200884  0.89218557  0.74138228
   0.39937452  0.58488839  0.09135367
   0.66619278  0.82975346  0.92308934
   0.99736396  0.44577838  0.79788792
   0.32546363  0.37441800  0.22967274
   0.35225393  0.06702547  0.17972560
   0.58493632  0.55087289  0.88054145
   0.66808304  0.91842386  0.07341277
   0.54815283  0.72175108  0.77783911
   0.59526178  0.38773461  0.52713033
   0.56655643  0.51936580  0.05086680
   0.99078159  0.80201163  0.32664864
   0.28590399  0.54346710  0.26315432
   0.04485607  0.17644212  0.94505779
   0.30228194  0.00631152  0.85460096
   0.81900063  0.77680827  0.30835922
   0.34806683  0.61926580  0.61868083
   0.58143889  0.07617930  0.46537948
   0.12567142  0.52740151  0.31376430
   0.78203728  0.57472608  0.42313335
   0.27663816  0.74577074  0.09825739
   0.23107851  0.10420894  0.99424904
   0.72447109  0.22545660  0.72599713
   0.49363466  0.87168163  0.07240409
   0.12566524  0.71478337  0.92450013
   0.97558795  0.10859118  0.15270700
   0.83889289  0.90664402  0.10459559
   0.80253710  0.99745227  0.78219522
   0.42759376  0.94322209  0.55608616
   0.77713957  0.07047891  0.11103013
   0.72175894  0.04679642  0.94375106
   0.31686415  0.17895074  0.79641538
   0.55804163  0.05170915  0.07054772
   0.46075050  0.77211652  0.62140834
   0.10434748  0.50558630  0.48649614
   0.79271414  0.92867142  0.42913552
   0.23191074  0.07987622  0.49841199
   0.33433149  0.15067158  0.62716301
   0.97619762  0.64406868  0.59596158
   0.20458777  0.92760121  0.00428276
   0.98256262  0.11812303  0.76553157
   0.69416311  0.38813741  0.09028894
   0.91268698  0.98638889  0.59702845
   0.44090974  0.62630799  0.93208504
   0.42340459  0.21313713  0.26881208
   0.73773924  0.83217693  0.76244033
   0.55108741  0.17064409  0.61903364
   0.26275173  0.59697747  0.94187655
   0.11836292  0.83851540  0.52628072
   0.75396648  0.04512388  0.61611410
   0.97964352  0.83022036  0.99222508
   0.07783969  0.39839937  0.02827146
   0.37483953  0.26995478  0.43573643
   0.97491651  0.93064458  0.21595996
   0.89577978  0.05786024  0.96968353
   0.81668752  0.75499718  0.48239475
   0.45906716  0.96720895  0.38856604
   0.03970864  0.97964759  0.06191481
   0.82948224  0.15848422  0.84153138
   0.91073454  0.62448956  0.26312239
   0.85889715  0.31277264  0.47822172
   0.63559830  0.80622544  0.21222015
   0.25153726  0.27691793  0.92610249
   0.59323010  0.43155730  0.69104344
   0.75199112  0.87193309  0.59643972
   0.04033480  0.98377736  0.88442135
   0.17005864  0.47403163  0.84713739
   0.33933675  0.76645901  0.50010805
   0.13453712  0.09826967  0.66355877
   0.09861576  0.92720055  0.68342907
   0.40517992  0.09241593  0.01699264
   0.24628389  0.41096971  0.06879929
   0.41155216  0.89450881  0.74726046
   0.15927139  0.10391367  0.83549843
 
 position of ions in cartesian coordinates  (Angst):
  15.66034381  1.34824839  4.82000568
  16.46868186  3.58630184  0.89888538
  17.11973891 16.65484857  8.25447227
  15.25298307 11.75120506 12.43915823
   1.25227515 10.67058151  2.26518393
  14.82524519  3.53944327 10.82897713
  17.60869969 14.17675474  9.09543417
   9.56594637 13.63957781 17.04354162
   8.97700091  6.50001421  4.21054739
  13.17049184  9.62080699 12.20245519
   8.14856135  0.76936810 12.24269913
   7.67380431 13.13802785  2.55182390
  10.26688398 11.84305371  5.13995879
  17.76641914  0.41009608  6.38080532
  15.81937833 12.79929092 17.93238788
  10.17520614  2.69096525  5.90357866
   4.72755073  8.76161602  9.92089950
   0.63856513  8.30724475  3.26668705
   7.93944278 15.64096921 16.42285693
   1.26471777 12.20944386  4.48387214
  17.84616937  4.83371936 15.02864855
  10.37853884  3.54434868 14.27988794
   1.98453999  5.94491473 15.98841375
   9.50577861 10.09252882 13.30062832
   6.42580616 16.86927974  0.24210687
  17.30955616 17.06937867 13.66266538
  16.24261102 14.74809709 14.66416826
   8.63067135  4.69432353  2.22083025
   2.75383561  6.75788619  7.09474842
  11.57939481  7.26940927  4.42065304
   9.49171606 11.02926616 10.81369364
  12.65960764 12.24423255 12.67066913
  14.71834843 16.77046046  5.01672219
  11.21081923  9.82885270  3.73116713
  11.90155248  9.74235651  9.80163897
  13.47587362  1.31892287  8.42855231
  10.43176877  5.43337107  0.39520909
  10.74057616  0.20203178 11.29574750
  13.13080999 12.69078998  0.44912378
  13.98575639 13.59153047  2.86402727
  13.50492147  7.55811064  8.63661402
   0.78200058 14.70752208 15.18944128
   4.61179175  8.83979190 12.71643670
  15.15901466  6.23356669 14.77382613
  12.88995840 12.00536756 15.58913327
  10.64812746 15.50001817 10.12340409
   0.97530762  2.89562201  7.66661691
   8.00889312  8.44267912 10.47099428
   8.39515027  1.50001674 15.03593613
  16.57359523 10.54460769  1.45532347
  16.39082578 14.42722725 11.77715454
   5.15367691  6.04647338 10.67433342
  15.95788316 11.85623697 15.15508649
  11.26487844  9.50967606  6.78649421
   5.61886758  6.25155745 13.77282141
   2.05137898 10.02515172 11.78887379
   2.70821775  4.34207261 10.26308502
   9.63791336  5.46296954  6.85680892
   2.76140632  6.59098125  4.14403351
   7.71247950  7.37089263  1.47936719
   4.08297824 10.30307105  1.99901688
  11.99164558 12.62611003  9.94823080
   4.94615164 17.73670100 12.35048842
  12.70390747  5.58091131  6.65483345
  11.74671416  0.96335036 13.95340971
   0.17917688  5.54992443  6.17049280
   1.61394635  3.35581759  4.44833691
   0.44977890  6.23421304  9.25317690
  13.07027922  2.52177564  5.75087044
   8.66747416 11.19767970  8.08938930
   4.83125787 16.45739957  9.42289775
  17.72344180 11.51066423  7.76071920
  15.95927858  2.60500893  7.62388859
   1.39116045  0.15909440  9.41688064
   5.76339568  4.38670941  1.50386580
   2.79691549  4.70724915 13.53259885
   9.23029733  0.50509420  4.34012939
  16.09696358  8.91958048 12.23674665
  13.88295970  6.66958890 11.49179984
  17.76964352  2.59330205 10.72709671
   4.67828744 14.56140311 12.51893190
   1.68383569  7.01315294 11.92786385
   1.29658547 10.01309664 17.40757471
   8.57086066 15.30102908  4.53042508
   9.21677527  7.12457485 16.46508424
  16.69738675  8.76960611  9.10793848
   8.11839251  5.31020639 10.65128852
   8.45593076  8.24218280  7.39009451
  16.92336489 13.56715432  2.87007451
   7.34475350 12.36634748  5.30098481
  12.14581339 17.71657884  4.37375211
   6.09017103  7.79153303 16.53623371
   6.85810501  9.80054107 14.27904595
  16.84880450  5.40837374 12.10052595
   4.64473012  3.65064715  4.35533785
   2.44673598  4.27858360  1.45390084
  12.00580427 13.29358766  6.92228319
   3.84088406 11.70267766 14.05218237
  11.11518245  3.32235005  3.06506613
  12.37114122  4.02907726  9.39565998
  17.74386300  5.31670919  2.91617551
  15.61107512  7.66133813  2.28733353
   2.47986554  0.47015981  5.85553161
  14.07860773  4.25890055  2.50650538
   3.92998990  4.06788857  7.35262173
  13.57083910  8.93918079 14.95248060
   3.56053952 15.60435763 15.19123470
  16.24120601  9.20853222 16.69327636
  11.96105153  6.12872178 15.20831532
   1.82842115 13.57793836  1.69319568
   8.30734380  9.35364849  4.45511914
   2.67018904 16.03161811  3.31349784
   3.51287811 12.41254621 10.50779919
   5.53294256  0.58023027  6.25944138
   5.55196771 10.77599679  7.94900414
  11.36239213 16.38247028  7.10517301
  11.03471424  3.06200207 17.04631752
   5.81561340 16.13139152  3.06822190
  15.38469404  4.99401960  5.27569833
   3.17449046  1.07210211  2.75042350
   0.70931829 11.09437503 14.42381841
   5.59487424 13.84827559 16.89532318
   4.11649680 12.81197953  4.88498281
   7.46366255  1.96734809  8.65518014
   7.81205194  4.25337599 16.75200788
   6.79382513 12.91837735 14.12561865
   1.29466036 13.64462411 12.53985921
  14.46113082  8.12706462  5.15916337
   2.69460951 12.18307201  7.55917556
   5.80741708 15.29134469  6.27070168
   2.70163088 15.37536766  6.40336132
   8.70004847  5.85313396 13.72655619
  13.87252403 10.71029596  3.23790881
   5.48382590  7.56663090  7.25550261
  17.42609641  8.40704940  6.01928665
  13.82604172  4.79942518 17.39456873
   8.89953555 14.27843629  7.69536636
  16.68304525  6.23893017 17.63599131
  10.35347745 12.40092428  1.65051601
  10.17031289 17.44961676 16.40769051
  15.05045443 16.02972337 16.91031649
  13.26203462  9.66204679  0.24863524
  10.56101720 15.98262428 13.46761780
   7.18913959 10.46742857  1.71907464
  12.11686520 14.85797060 16.75219269
  18.12864458  7.93077459 14.53151710
   5.89044872  6.69815637  4.19532300
   6.39627308  1.17534788  3.29022211
  10.66531563  9.85708890 15.96606709
  12.02016612 16.43127008  1.44303090
   9.96900846 12.92632695 14.11498408
  10.81605135  6.91923418  9.59406766
  10.21556458  9.27486622  1.01108154
  17.90882355 14.31726666  6.04858956
   5.16373941  9.73778960  4.79795785
   0.93244921  3.18467182 17.04215165
   5.59478684  0.10455389 15.44334715
  14.79894318 13.87996187  5.69414470
   6.33345801 11.10090197 11.21577039
  10.58537922  1.32511792  8.47042832
   2.27202923  9.46501384  5.68702701
  14.16489840 10.25742440  7.75152143
   4.95368911 13.36741018  1.83083343
   4.31711691  1.87185304 17.95272456
  13.19854347  3.99811337 13.19135340
   8.86646688 15.60785296  1.39901165
   2.34306928 12.84286557 16.69839721
  17.67202004  1.86437309  2.89207985
  15.11771090 16.20490717  2.02863497
  14.54924864 17.85353722 14.23709031
   7.73438348 16.90897830 10.10817298
  14.07721157  1.19720034  2.11205679
  13.19725032  0.79526224 17.11000175
   5.83456346  3.20171456 14.40176376
  10.10701430  0.87922944  1.35120968
   8.35965789 13.83516830 11.28511499
   1.91298863  9.07904330  8.79619621
  14.32668988 16.61172433  7.87128556
   4.26273669  1.42401500  9.01670513
   6.12887376  2.68866043 11.35332674
  17.69818852 11.48860628 10.89530219
   3.61924911 16.63669716  0.13238980
  17.88598096  2.04831286 13.93699721
  12.54316247  6.90789778  1.73568792
  16.51740369 17.64081543 10.91537316
   8.05873553 11.22576765 16.87684845
   7.68374990  3.79428364  4.90980791
  13.38854128 14.89145608 13.86726966
  10.04954005  3.02737475 11.23784987
   4.83785528 10.71555436 17.02743423
   2.14201772 15.05643029  9.52461986
  13.73305996  0.75512260 11.21015783
  17.80082969 14.83935610 18.04213257
   1.37671399  7.14685708  0.53178137
   6.82357128  4.82252823  7.91273735
  17.59388301 16.62590758  4.05531863
  16.35007323  0.97865345 17.60209258
  14.78422028 13.49236456  8.82947853
   8.27770213 17.33313210  7.09441171
   0.63821837 17.58745843  1.14929378
  15.12225129  2.78859402 15.28622947
  16.46687111 11.13572180  4.88747667
  15.58810010  5.54822814  8.74758835
  11.46245153 14.42272771  3.93670297
   4.66182299  4.96951368 16.73246308
  10.79896154  7.70985339 12.54889843
  13.61889846 15.60034974 10.87892170
   0.76806120 17.67957520 15.97182797
   3.15748823  8.51439983 15.30361642
   6.14483792 13.74197322  9.08195272
   2.52229107  1.76674821 11.97964774
   1.79916882 16.65402459 12.35633470
   7.32848537  1.62285697  0.36578363
   4.43056185  7.35812504  1.28615372
   7.47608624 16.03997261 13.54966690
   2.99436178  1.86960466 15.08179528
 


--------------------------------------------------------------------------------------------------------


 k-point  1 :   0.0000 0.0000 0.0000  plane waves:  106423

 maximum and minimum number of plane-waves per node :      3331     3321

 maximum number of plane-waves:    106423
 maximum index in each direction: 
   IXMAX=   29   IYMAX=   29   IZMAX=   29
   IXMIN=  -29   IYMIN=  -29   IZMIN=  -29


 parallel 3D FFT for wavefunctions:
    minimum data exchange during FFTs selected (reduces bandwidth)
 parallel 3D FFT for charge:
    minimum data exchange during FFTs selected (reduces bandwidth)


 FFT grid for exact exchange (Hartree Fock) 
  NGX = 90; NGY = 90; NGZ = 90

 
 Radii for the augmentation spheres in the non-local exchange
 for species   1 augmentation radius   1.239 (default was   0.991)
       energy cutoff for augmentation   1600.0
 for species   2 augmentation radius   1.362 (default was   1.089)
       energy cutoff for augmentation   1600.0

 real space projection operators:
  total allocation   :      52829.88 KBytes
  max/ min on nodes  :       1883.40       1130.66

 Maximum index for augmentation-charges in exchange          148
  SETUP_FOCK is finished

 total amount of memory used by VASP MPI-rank0    79360. kBytes
=======================================================================

   base      :      30000. kBytes
   nonl-proj :      12504. kBytes
   fftplans  :       6876. kBytes
   grid      :       7372. kBytes
   one-center:        108. kBytes
   HF        :        129. kBytes
   nonlr-proj:       7173. kBytes
   wavefun   :      15198. kBytes
 
     INWAV:  cpu time    0.0001: real time    0.0010
 Broyden mixing: mesh for mixing (old mesh)
   NGX = 59   NGY = 59   NGZ = 59
  (NGX  =240   NGY  =240   NGZ  =240)
  gives a total of 205379 points

 initial charge density was supplied:
 charge density of overlapping atoms calculated
 number of electron    3024.0000000 magnetization 
 charge density for first step will be calculated from the start-wavefunctions


--------------------------------------------------------------------------------------------------------


 Maximum index for augmentation-charges          660 (set IRDMAX)


--------------------------------------------------------------------------------------------------------


 First call to EWALD:  gamma=   0.098
 Maximum number of real-space cells 3x 3x 3
 Maximum number of reciprocal cells 3x 3x 3

    FEWALD:  cpu time    0.0187: real time    0.0195


--------------------------------------- Iteration      1(   1)  ---------------------------------------


    POTLOK:  cpu time    0.2312: real time    0.2315
    SETDIJ:  cpu time    0.5525: real time    0.5535
    TRIAL :  cpu time    8.5892: real time    8.5909
    CORREC:  cpu time    0.0011: real time    0.0014
    --------------------------------------------
      LOOP:  cpu time    9.4036: real time    9.4107

 eigenvalue-minimisations  :  3860
 total energy-change (2. order) : 0.5639242E+05  (-0.9500896E+05)
 number of electron    3024.0000000 magnetization 
 augmentation part     3024.0000000 magnetization 

 Free energy of the ion-electron system (eV)
  ---------------------------------------------------
  alpha Z        PSCENC =      9468.43535840
  Ewald energy   TEWEN  =   -287161.39257536
  -Hartree energ DENC   =   -120711.56066692
  -exchange      EXHF   =         0.00000000
  -V(xc)+E(xc)   XCENC  =      9890.35793914
  PAW double counting   =    353399.72434327  -376255.43359859
  entropy T*S    EENTRO =        -0.01768749
  eigenvalues    EBANDS =     28848.01388336
  atomic energy  EATOM  =    438914.29720416
  ---------------------------------------------------
  free energy    TOTEN  =     56392.42419996 eV

  energy without entropy =    56392.44188745  energy(sigma->0) =    56392.43304371
  exchange ACFDT corr.  =         0.00000000  see jH, gK, PRB 81, 115126


--------------------------------------------------------------------------------------------------------




--------------------------------------- Iteration      1(   2)  ---------------------------------------


    TRIAL :  cpu time    9.7329: real time    9.7343
    CORREC:  cpu time    0.0012: real time    0.0016
    --------------------------------------------
      LOOP:  cpu time    9.9629: real time   10.1078

 eigenvalue-minimisations  :  4560
 total energy-change (2. order) :-0.3208768E+05  (-0.3083370E+05)
 number of electron    3024.0000000 magnetization 
 augmentation part     3024.0000000 magnetization 

 Free energy of the ion-electron system (eV)
  ---------------------------------------------------
  alpha Z        PSCENC =      9468.43535840
  Ewald energy   TEWEN  =   -287161.39257536
  -Hartree energ DENC   =   -120711.56066692
  -exchange      EXHF   =         0.00000000
  -V(xc)+E(xc)   XCENC  =      9890.35793914
  PAW double counting   =    353399.72434327  -376255.43359859
  entropy T*S    EENTRO =        -0.08300454
  eigenvalues    EBANDS =     -3239.59923025
  atomic energy  EATOM  =    438914.29720416
  ---------------------------------------------------
  free energy    TOTEN  =     24304.74576930 eV

  energy without entropy =    24304.82877384  energy(sigma->0) =    24304.78727157
  exchange ACFDT corr.  =         0.00000000  see jH, gK, PRB 81, 115126


--------------------------------------------------------------------------------------------------------




--------------------------------------- Iteration      1(   3)  ---------------------------------------


    TRIAL :  cpu time   10.0976: real time   10.0998
    CORREC:  cpu time    0.0013: real time    0.0016
    --------------------------------------------
      LOOP:  cpu time   10.3033: real time   10.5081

 eigenvalue-minimisations  :  5020
 total energy-change (2. order) :-0.1278760E+05  (-0.1231044E+05)
 number of electron    3024.0000000 magnetization 
 augmentation part     3024.0000000 magnetization 

 Free energy of the ion-electron system (eV)
  ---------------------------------------------------
  alpha Z        PSCENC =      9468.43535840
  Ewald energy   TEWEN  =   -287161.39257536
  -Hartree energ DENC   =   -120711.56066692
  -exchange      EXHF   =         0.00000000
  -V(xc)+E(xc)   XCENC  =      9890.35793914
  PAW double counting   =    353399.72434327  -376255.43359859
  entropy T*S    EENTRO =        -0.11198919
  eigenvalues    EBANDS =    -16027.17465560
  atomic energy  EATOM  =    438914.29720416
  ---------------------------------------------------
  free energy    TOTEN  =     11517.14135929 eV

  energy without entropy =    11517.25334848  energy(sigma->0) =    11517.19735389
  exchange ACFDT corr.  =         0.00000000  see jH, gK, PRB 81, 115126


--------------------------------------------------------------------------------------------------------




--------------------------------------- Iteration      1(   4)  ---------------------------------------


    TRIAL :  cpu time   11.0776: real time   11.0796
    CORREC:  cpu time    0.0014: real time    0.0017
    --------------------------------------------
      LOOP:  cpu time   11.5076: real time   11.5761

 eigenvalue-minimisations  :  5700
 total energy-change (2. order) :-0.3853418E+04  (-0.3682360E+04)
 number of electron    3024.0000000 magnetization 
 augmentation part     3024.0000000 magnetization 

 Free energy of the ion-electron system (eV)
  ---------------------------------------------------
  alpha Z        PSCENC =      9468.43535840
  Ewald energy   TEWEN  =   -287161.39257536
  -Hartree energ DENC   =   -120711.56066692
  -exchange      EXHF   =         0.00000000
  -V(xc)+E(xc)   XCENC  =      9890.35793914
  PAW double counting   =    353399.72434327  -376255.43359859
  entropy T*S    EENTRO =        -0.09237057
  eigenvalues    EBANDS =    -19880.61207462
  atomic energy  EATOM  =    438914.29720416
  ---------------------------------------------------
  free energy    TOTEN  =      7663.72355891 eV

  energy without entropy =     7663.81592947  energy(sigma->0) =     7663.76974419
  exchange ACFDT corr.  =         0.00000000  see jH, gK, PRB 81, 115126


--------------------------------------------------------------------------------------------------------




--------------------------------------- Iteration      1(   5)  ---------------------------------------


    TRIAL :  cpu time   12.5708: real time   12.5783
    CORREC:  cpu time    0.0015: real time    0.0018
    CHARGE:  cpu time    0.1056: real time    0.1056
    --------------------------------------------
      LOOP:  cpu time   12.8143: real time   13.1843

 eigenvalue-minimisations  :  6680
 total energy-change (2. order) :-0.1018274E+04  (-0.9806265E+03)
 number of electron    3024.0000163 magnetization 
 augmentation part     1648.5488294 magnetization 

 Free energy of the ion-electron system (eV)
  ---------------------------------------------------
  alpha Z        PSCENC =      9468.43535840
  Ewald energy   TEWEN  =   -287161.39257536
  -Hartree energ DENC   =   -120711.56066692
  -exchange      EXHF   =         0.00000000
  -V(xc)+E(xc)   XCENC  =      9890.35793914
  PAW double counting   =    353399.72434327  -376255.43359859
  entropy T*S    EENTRO =        -0.10301028
  eigenvalues    EBANDS =    -20898.87540893
  atomic energy  EATOM  =    438914.29720416
  ---------------------------------------------------
  free energy    TOTEN  =      6645.44958488 eV

  energy without entropy =     6645.55259516  energy(sigma->0) =     6645.50109002
  exchange ACFDT corr.  =         0.00000000  see jH, gK, PRB 81, 115126


--------------------------------------------------------------------------------------------------------




--------------------------------------- Iteration      1(   6)  ---------------------------------------


    POTLOK:  cpu time    0.1176: real time    0.1176
    SETDIJ:  cpu time    0.5505: real time    0.5511
    TRIAL :  cpu time  607.1720: real time  607.2585
    CORREC:  cpu time    0.0116: real time    0.0119
    CHARGE:  cpu time    0.0953: real time    0.0954
    --------------------------------------------
      LOOP:  cpu time  608.1546: real time  608.3344

 eigenvalue-minimisations  :     0
 total energy-change (2. order) :-0.7171706E+04  (-0.2473562E+03)
 number of electron    3024.0000164 magnetization 
 augmentation part     1662.9891103 magnetization 

 Free energy of the ion-electron system (eV)
  ---------------------------------------------------
  alpha Z        PSCENC =      9468.43535840
  Ewald energy   TEWEN  =   -287161.39257536
  -Hartree energ DENC   =   -116544.35975261
  -exchange      EXHF   =      7218.78029516
  -V(xc)+E(xc)   XCENC  =      9763.07091800
  PAW double counting   =    458601.93947095  -480962.34473646
  entropy T*S    EENTRO =        -0.10069892
  eigenvalues    EBANDS =    -39824.57939863
  atomic energy  EATOM  =    438914.29720416
  ---------------------------------------------------
  free energy    TOTEN  =      -526.25622667 eV

  energy without entropy =     -526.15552775  energy(sigma->0) =     -526.20587721
  exchange ACFDT corr.  =        -0.04552557  see jH, gK, PRB 81, 115126


--------------------------------------------------------------------------------------------------------




--------------------------------------- Iteration      1(   7)  ---------------------------------------


    POTLOK:  cpu time    0.1262: real time    0.1262
    SETDIJ:  cpu time    0.5492: real time    0.5495
    TRIAL :  cpu time  598.9449: real time  599.0235
    CORREC:  cpu time    0.0118: real time    0.0130
    CHARGE:  cpu time    0.0952: real time    0.0952
    --------------------------------------------
      LOOP:  cpu time  599.7307: real time  600.3913

 eigenvalue-minimisations  :     0
 total energy-change (2. order) :-0.1831768E+03  (-0.1541568E+03)
 number of electron    3024.0000164 magnetization 
 augmentation part     1665.9873894 magnetization 

 Free energy of the ion-electron system (eV)
  ---------------------------------------------------
  alpha Z        PSCENC =      9468.43535840
  Ewald energy   TEWEN  =   -287161.39257536
  -Hartree energ DENC   =   -118675.72254833
  -exchange      EXHF   =      7276.25036036
  -V(xc)+E(xc)   XCENC  =      9832.12059294
  PAW double counting   =    457239.35708176  -480116.63767101
  entropy T*S    EENTRO =        -0.09961107
  eigenvalues    EBANDS =    -37486.04013678
  atomic energy  EATOM  =    438914.29720416
  ---------------------------------------------------
  free energy    TOTEN  =      -709.43303277 eV

  energy without entropy =     -709.33342171  energy(sigma->0) =     -709.38322724
  exchange ACFDT corr.  =        -0.04446255  see jH, gK, PRB 81, 115126


--------------------------------------------------------------------------------------------------------




--------------------------------------- Iteration      1(   8)  ---------------------------------------


    POTLOK:  cpu time    0.1198: real time    0.1198
    SETDIJ:  cpu time    0.5489: real time    0.5492
    TRIAL :  cpu time  605.2693: real time  605.3482
    CORREC:  cpu time    0.0119: real time    0.0122
    CHARGE:  cpu time    0.0956: real time    0.0957
    --------------------------------------------
      LOOP:  cpu time  606.0641: real time  606.1804

 eigenvalue-minimisations  :     0
 total energy-change (2. order) :-0.1103892E+03  (-0.8787580E+02)
 number of electron    3024.0000163 magnetization 
 augmentation part     1656.4385668 magnetization 

 Free energy of the ion-electron system (eV)
  ---------------------------------------------------
  alpha Z        PSCENC =      9468.43535840
  Ewald energy   TEWEN  =   -287161.39257536
  -Hartree energ DENC   =   -120008.94184357
  -exchange      EXHF   =      7312.18942598
  -V(xc)+E(xc)   XCENC  =      9872.43792121
  PAW double counting   =    455126.20486991  -478338.11145199
  entropy T*S    EENTRO =        -0.09773235
  eigenvalues    EBANDS =    -36004.84153411
  atomic energy  EATOM  =    438914.29720416
  ---------------------------------------------------
  free energy    TOTEN  =      -819.82223643 eV

  energy without entropy =     -819.72450408  energy(sigma->0) =     -819.77337026
  exchange ACFDT corr.  =        -0.04808632  see jH, gK, PRB 81, 115126


--------------------------------------------------------------------------------------------------------




--------------------------------------- Iteration      1(   9)  ---------------------------------------


    POTLOK:  cpu time    0.1190: real time    0.1191
    SETDIJ:  cpu time    0.5478: real time    0.5481
    TRIAL :  cpu time  615.0550: real time  615.1398
    CORREC:  cpu time    0.0128: real time    0.0122
    CHARGE:  cpu time    0.0946: real time    0.0947
    --------------------------------------------
      LOOP:  cpu time  615.8514: real time  615.9666

 eigenvalue-minimisations  :     0
 total energy-change (2. order) :-0.6703199E+02  (-0.4862492E+02)
 number of electron    3024.0000162 magnetization 
 augmentation part     1644.5187800 magnetization 

 Free energy of the ion-electron system (eV)
  ---------------------------------------------------
  alpha Z        PSCENC =      9468.43535840
  Ewald energy   TEWEN  =   -287161.39257536
  -Hartree energ DENC   =   -120010.50493666
  -exchange      EXHF   =      7314.81633192
  -V(xc)+E(xc)   XCENC  =      9869.78104913
  PAW double counting   =    451954.74223643  -475180.63442985
  entropy T*S    EENTRO =        -0.09422398
  eigenvalues    EBANDS =    -36056.29672739
  atomic energy  EATOM  =    438914.29720416
  ---------------------------------------------------
  free energy    TOTEN  =      -886.85422157 eV

  energy without entropy =     -886.75999760  energy(sigma->0) =     -886.80710959
  exchange ACFDT corr.  =        -0.04454228  see jH, gK, PRB 81, 115126


--------------------------------------------------------------------------------------------------------




--------------------------------------- Iteration      1(  10)  ---------------------------------------


    POTLOK:  cpu time    0.1180: real time    0.1180
    SETDIJ:  cpu time    0.5497: real time    0.5500
    TRIAL :  cpu time  609.0925: real time  609.1795
    CORREC:  cpu time    0.0116: real time    0.0119
    CHARGE:  cpu time    0.0950: real time    0.0950
    --------------------------------------------
      LOOP:  cpu time  609.9406: real time  610.0690

 eigenvalue-minimisations  :     0
 total energy-change (2. order) :-0.3486477E+02  (-0.2117563E+02)
 number of electron    3024.0000162 magnetization 
 augmentation part     1638.3281653 magnetization 

 Free energy of the ion-electron system (eV)
  ---------------------------------------------------
  alpha Z        PSCENC =      9468.43535840
  Ewald energy   TEWEN  =   -287161.39257536
  -Hartree energ DENC   =   -119532.50399985
  -exchange      EXHF   =      7305.29424817
  -V(xc)+E(xc)   XCENC  =      9852.76788005
  PAW double counting   =    447792.65627652  -470917.74276800
  entropy T*S    EENTRO =        -0.08625789
  eigenvalues    EBANDS =    -36643.43639297
  atomic energy  EATOM  =    438914.29720416
  ---------------------------------------------------
  free energy    TOTEN  =      -921.71899286 eV

  energy without entropy =     -921.63273497  energy(sigma->0) =     -921.67586391
[...]
     11.03471      3.06200     17.04632        -0.006920      0.068392     -0.025887
      5.81561     16.13139      3.06822        -0.008016      0.021417     -0.049256
     15.38469      4.99402      5.27570        -0.040996      0.017225     -0.004759
      3.17449      1.07210      2.75042         0.007773     -0.049360     -0.006547
      0.70932     11.09438     14.42382         0.025187     -0.020509      0.001544
      5.59487     13.84828     16.89532        -0.012361     -0.031290      0.007238
      4.11650     12.81198      4.88498        -0.067422     -0.011761      0.043624
      7.46366      1.96735      8.65518        -0.028766      0.006357     -0.007382
      7.81205      4.25338     16.75201        -0.035686     -0.062848     -0.011898
      6.79383     12.91838     14.12562        -0.037107      0.000176     -0.012554
      1.29466     13.64462     12.53986        -0.022489      0.048058      0.022100
     14.46113      8.12706      5.15916         0.059384     -0.009417     -0.051267
      2.69461     12.18307      7.55918         0.029961     -0.034589     -0.000007
      5.80742     15.29134      6.27070         0.006351     -0.006406     -0.015785
      2.70163     15.37537      6.40336        -0.017297      0.017348     -0.024897
      8.70005      5.85313     13.72656         0.060634      0.012388      0.033100
     13.87252     10.71030      3.23791         0.000829     -0.001172     -0.015436
      5.48383      7.56663      7.25550         0.010464     -0.000193     -0.019169
     17.42610      8.40705      6.01929         0.048328     -0.018338     -0.073418
     13.82604      4.79943     17.39457         0.047261      0.003556     -0.055168
      8.89954     14.27844      7.69537        -0.030294      0.009402      0.004916
     16.68305      6.23893     17.63599        -0.021510      0.009964      0.003531
     10.35348     12.40092      1.65052        -0.079799      0.032467     -0.037213
     10.17031     17.44962     16.40769        -0.059618      0.013345     -0.063894
     15.05045     16.02972     16.91032         0.020529      0.000063     -0.037161
     13.26203      9.66205      0.24864        -0.013597      0.028249      0.035311
     10.56102     15.98262     13.46762        -0.002704      0.015998      0.003227
      7.18914     10.46743      1.71907         0.038177      0.040810      0.001630
     12.11687     14.85797     16.75219        -0.003569     -0.064250      0.019422
     18.12864      7.93077     14.53152         0.014085      0.042060     -0.012400
      5.89045      6.69816      4.19532        -0.048041      0.049381      0.011195
      6.39627      1.17535      3.29022        -0.011196     -0.034997      0.046535
     10.66532      9.85709     15.96607        -0.043038      0.021187      0.009981
     12.02017     16.43127      1.44303        -0.037494      0.038859      0.033023
      9.96901     12.92633     14.11498        -0.036331     -0.009032     -0.003047
     10.81605      6.91923      9.59407         0.049298      0.059591      0.046247
     10.21556      9.27487      1.01108         0.020999      0.065511      0.002995
     17.90882     14.31727      6.04859         0.003844      0.003303     -0.025622
      5.16374      9.73779      4.79796        -0.035874     -0.006096     -0.017492
      0.93245      3.18467     17.04215         0.002813      0.056416     -0.033416
      5.59479      0.10455     15.44335        -0.047698      0.000087     -0.054493
     14.79894     13.87996      5.69414         0.024424      0.028350      0.024390
      6.33346     11.10090     11.21577        -0.024359     -0.011824     -0.022936
     10.58538      1.32512      8.47043         0.003798      0.016663     -0.022361
      2.27203      9.46501      5.68703         0.007930     -0.051215      0.036082
     14.16490     10.25742      7.75152        -0.065239     -0.125102      0.040109
      4.95369     13.36741      1.83083         0.059794      0.004271     -0.016342
      4.31712      1.87185     17.95272         0.009129     -0.028051      0.023943
     13.19854      3.99811     13.19135         0.062103      0.004940      0.035918
      8.86647     15.60785      1.39901        -0.049897     -0.051899      0.020033
      2.34307     12.84287     16.69840        -0.053590      0.013247     -0.039458
     17.67202      1.86437      2.89208        -0.021074      0.013384      0.018156
     15.11771     16.20491      2.02863        -0.037218     -0.019897      0.023650
     14.54925     17.85354     14.23709        -0.010236      0.015304      0.019755
      7.73438     16.90898     10.10817        -0.021057      0.048041      0.015017
     14.07721      1.19720      2.11206        -0.006747     -0.049278     -0.007255
     13.19725      0.79526     17.11000         0.034040      0.015358      0.003387
      5.83456      3.20171     14.40176         0.006768      0.003773      0.056486
     10.10701      0.87923      1.35121        -0.011682      0.015909      0.018784
      8.35966     13.83517     11.28511         0.010004      0.028330     -0.039229
      1.91299      9.07904      8.79620         0.037602     -0.040977     -0.029434
     14.32669     16.61172      7.87129         0.023522      0.035637     -0.007738
      4.26274      1.42402      9.01671         0.026152     -0.060520      0.006078
      6.12887      2.68866     11.35333         0.043188     -0.084380      0.003121
     17.69819     11.48861     10.89530         0.008960      0.013201      0.039579
      3.61925     16.63670      0.13239         0.087602      0.033087     -0.026902
     17.88598      2.04831     13.93700        -0.018936      0.005694      0.032560
     12.54316      6.90790      1.73569        -0.011179     -0.037373      0.014813
     16.51740     17.64082     10.91537         0.028775      0.010897     -0.004345
      8.05874     11.22577     16.87685         0.053213      0.011174      0.033593
      7.68375      3.79428      4.90981         0.059689      0.046698      0.003631
     13.38854     14.89146     13.86727        -0.018220      0.029521     -0.021343
     10.04954      3.02737     11.23785         0.002433     -0.010765     -0.061708
      4.83786     10.71555     17.02743        -0.006625     -0.010084      0.027533
      2.14202     15.05643      9.52462        -0.010527      0.016565      0.005842
     13.73306      0.75512     11.21016         0.035951     -0.068108     -0.060639
     17.80083     14.83936     18.04213        -0.029099     -0.046596      0.018048
      1.37671      7.14686      0.53178         0.021475     -0.007075     -0.028698
      6.82357      4.82253      7.91274         0.026194     -0.033043      0.025926
     17.59388     16.62591      4.05532        -0.028978      0.001920     -0.021088
     16.35007      0.97865     17.60209        -0.044250      0.056308     -0.007514
     14.78422     13.49236      8.82948        -0.012358      0.089081     -0.009946
      8.27770     17.33313      7.09441         0.020905      0.003958      0.000826
      0.63822     17.58746      1.14929        -0.018552      0.023707      0.073353
     15.12225      2.78859     15.28623        -0.030671     -0.035420     -0.010265
     16.46687     11.13572      4.88748        -0.008179      0.000689      0.000970
     15.58810      5.54823      8.74759        -0.009319      0.018960      0.052208
     11.46245     14.42273      3.93670        -0.013617     -0.035159     -0.022232
      4.66182      4.96951     16.73246         0.038452     -0.011341     -0.004268
     10.79896      7.70985     12.54890        -0.060328      0.004808     -0.012963
     13.61890     15.60035     10.87892         0.001016     -0.019992     -0.001431
      0.76806     17.67958     15.97183        -0.022910      0.014234     -0.028120
      3.15749      8.51440     15.30362        -0.018951     -0.004771      0.025332
      6.14484     13.74197      9.08195         0.053459      0.076899      0.009588
      2.52229      1.76675     11.97965        -0.005678      0.008576     -0.003437
      1.79917     16.65402     12.35633        -0.050249     -0.034427     -0.025641
      7.32849      1.62286      0.36578        -0.017746     -0.066743      0.056735
      4.43056      7.35813      1.28615         0.003712      0.036826     -0.019866
      7.47609     16.03997     13.54967         0.044386     -0.020889      0.017191
      2.99436      1.86960     15.08180        -0.000314      0.041359      0.010983
 -----------------------------------------------------------------------------------
    total drift:                               -0.005107     -0.002599      0.001346


--------------------------------------------------------------------------------------------------------



  FREE ENERGIE OF THE ION-ELECTRON SYSTEM (eV)
  ---------------------------------------------------
  free  energy   TOTEN  =      -976.22275457 eV

  energy  without entropy=     -976.22246579  energy(sigma->0) =     -976.22261018
 


--------------------------------------------------------------------------------------------------------


    POTLOK:  cpu time    0.6944: real time    0.8308


--------------------------------------------------------------------------------------------------------


 writing wavefunctions
     LOOP+:  cpu time26436.7431: real time26686.9624
    4ORBIT:  cpu time    0.0000: real time    0.0000
 


 total charge     
 
# of ion       s       p       d       tot
------------------------------------------
    1        1.239   0.956  10.005  12.200
    2        1.242   0.970  10.001  12.214
    3        1.208   1.035  10.008  12.250
    4        1.225   1.000  10.003  12.228
    5        1.219   1.011  10.010  12.239
    6        1.257   0.942  10.001  12.200
    7        1.233   0.988  10.010  12.232
    8        1.217   1.006   9.999  12.222
    9        1.224   0.993  10.006  12.223
   10        1.226   0.978  10.007  12.211
   11        1.233   0.972  10.004  12.209
   12        1.219   1.023  10.000  12.242
   13        1.247   0.947  10.003  12.198
   14        1.231   0.979  10.011  12.220
   15        1.232   0.970  10.000  12.202
   16        1.228   1.001   9.997  12.226
   17        1.244   0.952  10.001  12.198
   18        1.231   0.965  10.003  12.198
   19        1.215   1.009  10.012  12.235
   20        1.247   0.923  10.000  12.171
   21        1.257   0.924  10.005  12.186
   22        1.234   0.981  10.001  12.216
   23        1.229   0.997  10.008  12.234
   24        1.223   0.998  10.001  12.222
   25        1.223   1.010  10.008  12.242
   26        1.227   0.995  10.006  12.228
   27        1.231   0.992  10.010  12.232
   28        1.222   1.006  10.006  12.234
   29        1.231   0.980   9.999  12.210
   30        1.238   0.951  10.000  12.190
   31        1.234   0.968  10.003  12.206
   32        1.232   0.994  10.005  12.231
   33        1.220   1.012  10.001  12.233
   34        1.218   1.014  10.010  12.243
   35        1.247   0.940  10.003  12.190
   36        1.227   1.002   9.999  12.228
   37        1.245   0.954  10.004  12.202
   38        1.243   0.975  10.005  12.223
   39        1.227   0.983  10.006  12.216
   40        1.231   0.994  10.005  12.229
   41        1.241   0.963  10.005  12.208
   42        1.241   0.980  10.008  12.229
   43        1.255   0.935  10.004  12.193
   44        1.320   0.907   9.981  12.207
   45        1.295   0.961   9.981  12.238
   46        1.270   1.009   9.978  12.257
   47        1.304   0.933   9.980  12.218
   48        1.315   0.892   9.968  12.175
   49        1.270   0.988   9.981  12.238
   50        1.268   0.986   9.980  12.233
   51        1.287   0.954   9.982  12.223
   52        1.300   0.932   9.976  12.208
   53        1.234   1.044   9.983  12.261
   54        1.315   0.890   9.973  12.178
   55        1.286   0.963   9.976  12.224
   56        1.290   0.966   9.988  12.244
   57        1.296   0.948   9.978  12.222
   58        1.290   0.968   9.982  12.241
   59        1.293   0.934   9.977  12.204
   60        1.325   0.883   9.981  12.189
   61        1.264   1.030   9.975  12.269
   62        1.284   0.957   9.983  12.224
   63        1.305   0.920   9.975  12.200
   64        1.276   0.965   9.983  12.225
   65        1.318   0.908   9.984  12.210
   66        1.296   0.949   9.984  12.228
   67        1.299   0.969   9.985  12.253
   68        1.283   0.976   9.983  12.242
   69        1.295   0.914   9.981  12.190
   70        1.303   0.927   9.980  12.210
   71        1.281   0.992   9.976  12.249
   72        1.311   0.901   9.980  12.192
   73        1.308   0.887   9.977  12.172
   74        1.294   0.950   9.978  12.221
   75        1.319   0.918   9.981  12.219
   76        1.305   0.928   9.977  12.209
   77        1.275   0.992   9.978  12.244
   78        1.303   0.901   9.972  12.175
   79        1.325   0.866   9.976  12.167
   80        1.307   0.923   9.970  12.200
   81        1.322   0.897   9.977  12.196
   82        1.290   0.976   9.971  12.237
   83        1.288   0.953   9.973  12.213
   84        1.296   0.953   9.981  12.230
   85        1.280   0.975   9.978  12.232
   86        1.305   0.915   9.969  12.188
   87        1.278   0.984   9.974  12.237
   88        1.280   1.006   9.978  12.263
   89        1.302   0.928   9.981  12.211
   90        1.299   0.930   9.979  12.208
   91        1.272   0.996   9.973  12.241
   92        1.290   0.959   9.974  12.223
   93        1.274   0.968   9.982  12.224
   94        1.323   0.871   9.972  12.167
   95        1.308   0.948   9.980  12.236
   96        1.321   0.895   9.971  12.186
   97        1.296   0.952   9.975  12.222
   98        1.331   0.872   9.976  12.178
   99        1.311   0.869   9.966  12.145
  100        1.299   0.928   9.969  12.196
  101        1.320   0.884   9.980  12.184
  102        1.299   0.899   9.967  12.165
  103        1.303   0.935   9.973  12.211
  104        1.277   0.963   9.972  12.212
  105        1.304   0.947   9.976  12.227
  106        1.300   0.940   9.975  12.216
  107        1.287   0.963   9.974  12.224
  108        1.286   0.956   9.975  12.217
  109        1.313   0.905   9.973  12.190
  110        1.292   0.954   9.975  12.221
  111        1.298   0.923   9.980  12.201
  112        1.300   0.944   9.975  12.219
  113        1.289   0.968   9.980  12.238
  114        1.310   0.913   9.966  12.188
  115        1.316   0.895   9.977  12.188
  116        1.298   0.919   9.974  12.191
  117        1.279   0.953   9.976  12.209
  118        1.294   0.939   9.974  12.208
  119        1.307   0.914   9.971  12.191
  120        1.308   0.927   9.976  12.211
  121        1.293   0.957   9.977  12.227
  122        1.281   0.946   9.971  12.198
  123        1.311   0.909   9.974  12.193
  124        1.307   0.932   9.972  12.211
  125        1.313   0.876   9.974  12.164
  126        1.293   0.960   9.977  12.231
  127        1.292   0.944   9.980  12.217
  128        1.305   0.922   9.966  12.193
  129        1.294   0.951   9.971  12.216
  130        1.312   0.909   9.974  12.195
  131        1.283   0.970   9.969  12.223
  132        1.284   0.967   9.972  12.222
  133        1.285   0.951   9.975  12.211
  134        1.280   0.971   9.979  12.230
  135        1.273   0.994   9.975  12.242
  136        1.301   0.912   9.969  12.182
  137        1.319   0.909   9.979  12.207
  138        1.294   0.922   9.978  12.194
  139        1.311   0.869   9.973  12.153
  140        1.288   0.959   9.975  12.222
  141        1.287   0.957   9.976  12.220
  142        1.313   0.892   9.968  12.173
  143        1.290   0.956   9.972  12.218
  144        1.289   0.959   9.981  12.228
  145        1.270   0.989   9.981  12.240
  146        1.310   0.903   9.978  12.191
  147        1.312   0.916   9.973  12.202
  148        1.279   0.978   9.974  12.230
  149        1.276   0.980   9.974  12.231
  150        1.307   0.924   9.975  12.206
  151        1.315   0.881   9.973  12.169
  152        1.297   0.938   9.977  12.212
  153        1.298   0.944   9.974  12.216
  154        1.290   0.934   9.982  12.206
  155        1.276   0.984   9.974  12.234
  156        1.301   0.895   9.971  12.167
  157        1.308   0.920   9.977  12.205
  158        1.291   0.936   9.977  12.204
  159        1.327   0.860   9.978  12.165
  160        1.297   0.928   9.981  12.207
  161        1.294   0.940   9.980  12.213
  162        1.328   0.857   9.968  12.153
  163        1.269   0.998   9.977  12.243
  164        1.301   0.927   9.972  12.201
  165        1.298   0.921   9.973  12.192
  166        1.315   0.883   9.979  12.178
  167        1.283   0.962   9.978  12.223
  168        1.279   0.977   9.980  12.236
  169        1.306   0.927   9.979  12.213
  170        1.299   0.942   9.974  12.216
  171        1.303   0.945   9.980  12.227
  172        1.318   0.893   9.972  12.184
  173        1.320   0.888   9.974  12.183
  174        1.295   0.962   9.975  12.231
  175        1.275   0.968   9.970  12.214
  176        1.293   0.923   9.976  12.192
  177        1.309   0.902   9.977  12.187
  178        1.258   1.010   9.979  12.248
  179        1.301   0.948   9.976  12.225
  180        1.304   0.919   9.972  12.195
  181        1.306   0.923   9.977  12.206
  182        1.323   0.900   9.973  12.196
  183        1.319   0.871   9.972  12.161
  184        1.271   0.959   9.972  12.201
  185        1.281   0.960   9.975  12.217
  186        1.290   0.955   9.976  12.221
  187        1.318   0.889   9.985  12.192
  188        1.274   0.978   9.981  12.233
  189        1.307   0.894   9.975  12.177
  190        1.320   0.901   9.977  12.198
  191        1.275   0.976   9.982  12.234
  192        1.281   0.969   9.977  12.227
  193        1.283   0.948   9.984  12.214
  194        1.276   0.965   9.976  12.217
  195        1.256   1.045   9.971  12.272
  196        1.284   0.954   9.982  12.220
  197        1.297   0.912   9.974  12.182
  198        1.303   0.927   9.971  12.202
  199        1.293   0.982   9.985  12.260
  200        1.306   0.927   9.975  12.208
  201        1.274   0.976   9.964  12.214
  202        1.309   0.907   9.977  12.193
  203        1.307   0.921   9.978  12.206
  204        1.299   0.926   9.975  12.200
  205        1.301   0.922   9.983  12.206
  206        1.273   0.973   9.975  12.221
  207        1.293   0.959   9.975  12.226
  208        1.315   0.879   9.975  12.170
  209        1.295   0.924   9.974  12.193
  210        1.296   0.953   9.974  12.223
  211        1.311   0.929   9.981  12.222
  212        1.305   0.934   9.974  12.213
  213        1.261   1.002   9.975  12.238
  214        1.302   0.932   9.971  12.204
  215        1.295   0.937   9.980  12.212
  216        1.299   0.954   9.979  12.232
--------------------------------------------------
tot        277.241 204.4742156.0452637.761
 

 total amount of memory used by VASP MPI-rank0    94600. kBytes
=======================================================================

   base      :      30000. kBytes
   nonl-proj :      12504. kBytes
   fftplans  :       6876. kBytes
   grid      :       7372. kBytes
   one-center:        108. kBytes
   HF        :        129. kBytes
   nonlr-proj:      22413. kBytes
   wavefun   :      15198. kBytes
 
  
  
 General timing and accounting informations for this job:
 ========================================================
  
                  Total CPU time used (sec):    26663.324
                            User time (sec):    21179.817
                          System time (sec):     5483.507
                         Elapsed time (sec):    27935.686
  
                   Maximum memory used (kb):      721220.
                   Average memory used (kb):           0.
  
                          Minor page faults:      9615650
                          Major page faults:          352
                 Voluntary context switches:     18061670
